H3                                                                      
SP        GUnkPrc                                                     UnkBas              
Number of atoms                            I                3
Info1-9                                    I   N=           9
          17          17           0           0           0         111
           1           0           0
Full Title                                 C   N=           1
H3          
Route                                      C   N=          10
#p GLSDA/3-21g SCF(maxcycle=2000,conver=14) INT(grid=SuperFi
neGrid) guess=read ExtraLinks=(L308) ExtraOverLays          
Charge                                     I                0
Multiplicity                               I                2
Number of electrons                        I                3
Number of alpha electrons                  I                2
Number of beta electrons                   I                1
Number of basis functions                  I                6
Number of independent functions            I                6
Number of point charges in /Mol/           I                0
Number of translation vectors              I                0
Atomic numbers                             I   N=           3
           1           1           1
Nuclear charges                            R   N=           3
  1.00000000E+00  1.00000000E+00  1.00000000E+00
Current cartesian coordinates              R   N=           9
 -1.41639812E-16  1.54295492E+00  5.30802564E-16  1.33623816E+00 -7.71477460E-01
  3.76842236E-16 -1.33623816E+00 -7.71477460E-01  1.93990620E-16
Number of symbols in /Mol/                 I                0
Force Field                                I                0
Atom Types                                 C   N=           3
                                    
Int Atom Types                             I   N=           3
           0           0           0
MM charges                                 R   N=           3
  0.00000000E+00  0.00000000E+00  0.00000000E+00
Integer atomic weights                     I   N=           3
           1           1           1
Real atomic weights                        R   N=           3
  1.00782504E+00  1.00782504E+00  1.00782504E+00
Atom fragment info                         I   N=           3
           0           0           0
Atom residue num                           I   N=           3
           0           0           0
Nuclear spins                              I   N=           3
           1           1           1
Nuclear ZEff                               R   N=           3
 -1.00000000E+00 -1.00000000E+00 -1.00000000E+00
Nuclear ZNuc                               R   N=           3
  1.00000000E+00  1.00000000E+00  1.00000000E+00
Nuclear QMom                               R   N=           3
  0.00000000E+00  0.00000000E+00  0.00000000E+00
Nuclear GFac                               R   N=           3
  2.79284600E+00  2.79284600E+00  2.79284600E+00
MicOpt                                     I   N=           3
          -1          -1          -1
Number of residues                         I                0
Number of secondary structures             I                0
SymInf integers                            I   N=          26
           2           4           1           1           1          -1
           1          -1          -1           1           1           1
           1          -1           0           0           0           0
           0           0           0           0           0           0
           0           0
RotTr to input orientation                 R   N=          12
 -2.66268470E-16  7.07106781E-01 -7.07106781E-01  8.16496581E-01 -4.08248290E-01
 -4.08248290E-01 -5.77350269E-01 -5.77350269E-01 -5.77350269E-01  6.29908708E-01
  6.29908708E-01  6.29908708E-01
Number of contracted shells                I                6
Number of primitive shells                 I                9
Pure/Cartesian d shells                    I                1
Pure/Cartesian f shells                    I                0
Highest angular momentum                   I                0
Largest degree of contraction              I                2
Shell types                                I   N=           6
           0           0           0           0           0           0
Number of primitives per shell             I   N=           6
           2           1           2           1           2           1
Shell to atom map                          I   N=           6
           1           1           2           2           3           3
Primitive exponents                        R   N=           9
  5.44717800E+00  8.24547240E-01  1.83191580E-01  5.44717800E+00  8.24547240E-01
  1.83191580E-01  5.44717800E+00  8.24547240E-01  1.83191580E-01
Contraction coefficients                   R   N=           9
  1.56284979E-01  9.04690877E-01  1.00000000E+00  1.56284979E-01  9.04690877E-01
  1.00000000E+00  1.56284979E-01  9.04690877E-01  1.00000000E+00
Coordinates of each shell                  R   N=          18
 -2.53421232E-17  1.54295492E+00  1.99492287E-16 -2.53421232E-17  1.54295492E+00
  1.99492287E-16  1.33623816E+00 -7.71477460E-01  2.90874890E-16  1.33623816E+00
 -7.71477460E-01  2.90874890E-16 -1.33623816E+00 -7.71477460E-01  1.62398084E-16
 -1.33623816E+00 -7.71477460E-01  1.62398084E-16
Num ILSW                                   I              100
ILSW                                       I   N=         100
           6           1           0           0           2           0
           0           0           0           0         205          -1
           7           0           0           0           0           0
           0           0           0           0           0           0
           0           0           0           0           0           0
           0           0      100000           0          -1           0
           0           0           0           0           0           0
           0           0           0           1           0           0
           0 -2000000000           1           0           0           0
           0           1           4          52           0           0
           0           0           0           0           0           0
           0           0           0           3           0           1
           0           0           0           0           0           0
           0           0           0           0           0           0
           0           0           0           0           0           0
           0           0           0           0           0           0
           0           0           0           0
Num RLSW                                   I               52
RLSW                                       R   N=          52
  1.00000000E+00  1.00000000E+00  1.00000000E+00  1.00000000E+00  0.00000000E+00
  0.00000000E+00  0.00000000E+00  1.00000000E+00  0.00000000E+00  0.00000000E+00
  0.00000000E+00  0.00000000E+00  1.00000000E+00  0.00000000E+00  0.00000000E+00
  0.00000000E+00  0.00000000E+00  1.00000000E+00  0.00000000E+00  0.00000000E+00
  0.00000000E+00  0.00000000E+00  1.00000000E+00  0.00000000E+00  0.00000000E+00
  0.00000000E+00  0.00000000E+00  1.00000000E+00  0.00000000E+00  0.00000000E+00
  0.00000000E+00  0.00000000E+00  1.00000000E+00  0.00000000E+00  0.00000000E+00
  0.00000000E+00  0.00000000E+00  0.00000000E+00  1.00000000E+00  1.00000000E+00
  0.00000000E+00  1.00000000E+00  0.00000000E+00  0.00000000E+00  0.00000000E+00
  0.00000000E+00  0.00000000E+00  0.00000000E+00  0.00000000E+00  0.00000000E+00
  0.00000000E+00  0.00000000E+00
MxBond                                     I                1
NBond                                      I   N=           3
           0           0           0
IBond                                      I   N=           3
           0           0           0
RBond                                      R   N=           3
  0.00000000E+00  0.00000000E+00  0.00000000E+00
Virial Ratio                               R      2.108981177380880E+00
SCF Energy                                 R     -1.549924593580632E+00
Total Energy                               R     -1.549924593580632E+00
S**2                                       R      7.846660389104829E-01
RMS Density                                R      2.281243631820417E-15
Job Status                                 I                1
Nuclear derivative order                   I                0
External E-field                           R   N=         105
  0.00000000E+00  0.00000000E+00  0.00000000E+00  0.00000000E+00  0.00000000E+00
  0.00000000E+00  0.00000000E+00  0.00000000E+00  0.00000000E+00  0.00000000E+00
  0.00000000E+00  0.00000000E+00  0.00000000E+00  0.00000000E+00  0.00000000E+00
  0.00000000E+00  0.00000000E+00  0.00000000E+00  0.00000000E+00  0.00000000E+00
  0.00000000E+00  0.00000000E+00  0.00000000E+00  0.00000000E+00  0.00000000E+00
  0.00000000E+00  0.00000000E+00  0.00000000E+00  0.00000000E+00  0.00000000E+00
  0.00000000E+00  0.00000000E+00  0.00000000E+00  0.00000000E+00  0.00000000E+00
  0.00000000E+00  0.00000000E+00  0.00000000E+00  0.00000000E+00  0.00000000E+00
  0.00000000E+00  0.00000000E+00  0.00000000E+00  0.00000000E+00  0.00000000E+00
  0.00000000E+00  0.00000000E+00  0.00000000E+00  0.00000000E+00  0.00000000E+00
  0.00000000E+00  0.00000000E+00  0.00000000E+00  0.00000000E+00  0.00000000E+00
  0.00000000E+00  0.00000000E+00  0.00000000E+00  0.00000000E+00  0.00000000E+00
  0.00000000E+00  0.00000000E+00  0.00000000E+00  0.00000000E+00  0.00000000E+00
  0.00000000E+00  0.00000000E+00  0.00000000E+00  0.00000000E+00  0.00000000E+00
  0.00000000E+00  0.00000000E+00  0.00000000E+00  0.00000000E+00  0.00000000E+00
  0.00000000E+00  0.00000000E+00  0.00000000E+00  0.00000000E+00  0.00000000E+00
  0.00000000E+00  0.00000000E+00  0.00000000E+00  0.00000000E+00  0.00000000E+00
  0.00000000E+00  0.00000000E+00  0.00000000E+00  0.00000000E+00  0.00000000E+00
  0.00000000E+00  0.00000000E+00  0.00000000E+00  0.00000000E+00  0.00000000E+00
  0.00000000E+00  0.00000000E+00  0.00000000E+00  0.00000000E+00  0.00000000E+00
  0.00000000E+00  0.00000000E+00  0.00000000E+00  0.00000000E+00  0.00000000E+00
IOpCl                                      I                6
IROHF                                      I                0
Alpha Orbital Energies                     R   N=          12
 -3.91726322E-01 -3.91726322E-01 -1.48211589E-01 -1.10621511E-01 -1.10621511E-01
 -7.93637494E-02  8.20090168E-01  8.48252530E-01  8.48252530E-01  8.95870378E-01
  9.89529256E-01  9.89529256E-01
Alpha MO coefficients                      R   N=         288
  1.12700615E-01  1.85105809E-02  1.86855476E-01  1.17280005E-06  1.77753358E-01
  2.91982744E-02  2.94653419E-01  0.00000000E+00  1.10677283E-01  1.85637681E-02
  1.30730254E-01 -2.37412135E-04  1.74403499E-01  2.92863319E-02  2.01731660E-01
 -3.95004794E-04  6.38386941E-02  1.00000387E-02  1.60508017E-01  2.99358789E-04
  9.68568293E-02  1.51080933E-02  2.51032171E-01  4.93681191E-04  1.31873593E-01
  1.64005017E-04 -7.87970195E-02  1.27499210E-02  2.03624605E-01  2.50617933E-04
 -1.21619817E-01  1.96745702E-02  1.87999118E-01  1.26304919E-05 -8.08202668E-02
  1.26935899E-02  2.96546865E-01  0.00000000E+00 -1.24969536E-01  1.95813077E-02
  1.58220557E-01  5.03130619E-04 -1.27672106E-01  2.11845288E-02  2.47245032E-01
  8.12079361E-04 -2.02538143E-01  3.36390333E-02 -1.07392533E-01  1.38952017E-03
 -1.71333517E-01  3.06147894E-02 -3.25990240E-01  4.21789113E-03 -5.20083218E-01
  9.29312516E-02  2.04423991E-01  7.69614245E-14 -6.16843106E-03 -5.55676685E-04
  6.20529415E-01  0.00000000E+00 -1.87242842E-02 -1.68675764E-03 -9.70314576E-02
 -1.38952017E-03  1.77501948E-01 -3.00591127E-02 -2.94539175E-01 -4.21789113E-03
  5.38807502E-01 -9.12444939E-02  1.64050852E-01  2.93653270E-02 -1.02824181E-01
 -1.41123394E-03  5.64419275E-01  1.01036204E-01 -3.53770203E-01 -4.84841015E-03
 -1.58946466E-01 -2.69580677E-02 -9.32446700E-02  1.24136572E-03 -5.16341316E-01
 -8.74238920E-02 -3.21716817E-01  4.02728331E-03  1.10976490E-02  4.97506955E-04
  1.85911446E-01  3.77673287E-05  5.26323803E-02  4.44344399E-03  6.12349544E-01
  0.00000000E+00 -9.60536510E-02  1.24282151E-03 -1.53272385E-01  2.73006186E-02
 -3.11682041E-01  4.04028229E-03 -4.97353320E-01  8.85830451E-02 -8.64719248E-02
 -1.40176428E-03  1.69771933E-01 -2.87525802E-02 -2.79621242E-01 -4.80859650E-03
  5.83564534E-01 -9.89729653E-02  1.92683087E-01  3.53382377E-05 -2.95088098E-04
 -1.43925123E-03  6.54441424E-01  0.00000000E+00  1.45141929E-02 -7.58158851E-03
  1.49874212E-01  2.67803259E-02 -9.39417551E-02 -1.21548454E-03  5.45278895E-01
  9.74333499E-02 -3.41782991E-01 -4.42222885E-03  5.39584292E-03 -4.86078886E-04
  1.78820146E-01 -5.13545307E-14  1.96313910E-02 -1.76847341E-03  6.50591255E-01
  0.00000000E+00 -1.55270055E-01 -2.62942471E-02 -8.48783910E-02  1.21548454E-03
 -5.64910286E-01 -9.56648765E-02 -3.08808264E-01  4.42222885E-03  3.84331459E-01
 -4.97275088E-03  6.13160511E-01 -1.09562800E-01 -4.59124071E-01  5.94047032E-03
 -7.32484275E-01  1.30884209E-01 -7.31583178E-01  1.06445173E-12  2.20752977E-02
  1.98863012E-03  8.73952520E-01  0.00000000E+00 -2.63712490E-02 -2.37562636E-03
  3.47251719E-01  4.97275088E-03 -6.35235810E-01  1.07574170E-01 -4.14828448E-01
 -5.94047033E-03  7.58855524E-01 -1.28508582E-01 -4.23038576E-01 -7.51243097E-02
  2.65121100E-01  3.17944913E-03  5.83841791E-01  1.03684767E-01 -3.65896208E-01
 -4.38065338E-03  7.85663663E-01  1.33818934E-01  2.29210379E-01 -6.44827886E-03
 -8.42031758E-01 -1.42799963E-01 -3.23533294E-01  6.97691861E-03  1.49261239E-01
  3.22352552E-02 -8.15125960E-01 -5.33997648E-04 -9.12849209E-02 -2.29644263E-02
  9.08442219E-01  0.00000000E+00 -4.72603221E-01 -7.81320017E-02 -7.76257088E-01
  2.34416542E-06  5.05085972E-01  8.34980202E-02  8.29607625E-01  0.00000000E+00
 -4.35562235E-01 -8.13317775E-02  4.50358822E-01  5.64089712E-03  4.61389717E-01
  8.72727097E-02 -6.17398201E-01 -6.65164939E-03  5.91648779E-01  1.07111572E-01
 -1.94001584E-01 -5.62654747E-03 -7.50383512E-01 -1.35028846E-01  1.42736454E-01
  6.64025219E-03 -6.18755774E-01 -1.10562592E-01  3.87838592E-01  5.01812863E-03
  7.13926253E-01  1.27568162E-01 -4.47491829E-01 -5.78996418E-03 -2.22767404E-02
  2.00677703E-03 -7.38259080E-01 -9.20098489E-13  2.57031135E-02 -2.31543826E-03
  8.51810296E-01  0.00000000E+00  6.41032515E-01  1.08555815E-01  3.50420488E-01
 -5.01812863E-03 -7.39629367E-01 -1.25252724E-01 -4.04318467E-01  5.78996419E-03
  2.91408313E-01  4.76321597E-02  4.78531599E-01 -9.20093110E-04 -1.42658296E-01
 -2.33216952E-02 -2.34272569E-01  4.52563016E-04  3.01682778E-01  4.67304125E-02
  8.18734140E-01 -9.40395481E-38 -1.53977691E-01 -2.23282388E-02 -6.09074273E-01
 -5.61105093E-04  5.86675172E-01  9.84531855E-02  6.40012864E-01 -2.79079317E-03
 -4.67954285E-01 -7.93113038E-02 -4.12176747E-01  2.51351638E-03  8.12988955E-01
  0.00000000E+00 -4.94946982E-01  8.18577993E-02 -6.02744256E-01  1.24617572E-06
  3.66953233E-01 -6.06872496E-02  4.72788793E-01  1.57030602E-03 -4.84670812E-01
  8.27399077E-02 -2.27945173E-01 -1.72876257E-03  3.55631960E-01 -6.16590698E-02
  6.51504409E-01 -1.56206440E-03 -1.99777794E-01  3.04725354E-02 -4.24836464E-01
  1.72217512E-03  4.17648485E-02 -4.07601885E-03
Orthonormal basis                          R   N=         288
  1.90474353E-01  0.00000000E+00  0.00000000E+00  0.00000000E+00  2.91551174E-01
  0.00000000E+00  0.00000000E+00  0.00000000E+00  1.90474353E-01  0.00000000E+00
  0.00000000E+00  0.00000000E+00  2.91551174E-01  0.00000000E+00  0.00000000E+00
  0.00000000E+00  1.90474353E-01  0.00000000E+00  0.00000000E+00  0.00000000E+00
  2.91551174E-01  0.00000000E+00  0.00000000E+00  0.00000000E+00  0.00000000E+00
  0.00000000E+00  1.90474353E-01  0.00000000E+00  0.00000000E+00  0.00000000E+00
  2.91551174E-01  0.00000000E+00  0.00000000E+00  0.00000000E+00  1.90474353E-01
  0.00000000E+00  0.00000000E+00  0.00000000E+00  2.91551174E-01  0.00000000E+00
  0.00000000E+00  0.00000000E+00  1.90474353E-01  0.00000000E+00  0.00000000E+00
  0.00000000E+00  2.91551174E-01  0.00000000E+00  6.41024971E-01  0.00000000E+00
  0.00000000E+00  0.00000000E+00  3.76416080E-01  0.00000000E+00  0.00000000E+00
  0.00000000E+00 -3.20512485E-01  0.00000000E+00  0.00000000E+00  0.00000000E+00
 -1.88208040E-01  0.00000000E+00  0.00000000E+00  0.00000000E+00 -3.20512485E-01
  0.00000000E+00  0.00000000E+00  0.00000000E+00 -1.88208040E-01  0.00000000E+00
  0.00000000E+00  0.00000000E+00  0.00000000E+00  0.00000000E+00  6.41024971E-01
  0.00000000E+00  0.00000000E+00  0.00000000E+00  3.76416080E-01  0.00000000E+00
  0.00000000E+00  0.00000000E+00 -3.20512485E-01  0.00000000E+00  0.00000000E+00
  0.00000000E+00 -1.88208040E-01  0.00000000E+00  0.00000000E+00  0.00000000E+00
 -3.20512485E-01  0.00000000E+00  0.00000000E+00  0.00000000E+00 -1.88208040E-01
  0.00000000E+00  7.84746297E-01  0.00000000E+00  0.00000000E+00  0.00000000E+00
 -5.12685446E-01  0.00000000E+00  0.00000000E+00  0.00000000E+00  7.84746297E-01
  0.00000000E+00  0.00000000E+00  0.00000000E+00 -5.12685446E-01  0.00000000E+00
  0.00000000E+00  0.00000000E+00  7.84746297E-01  0.00000000E+00  0.00000000E+00
  0.00000000E+00 -5.12685446E-01  0.00000000E+00  0.00000000E+00  0.00000000E+00
  0.00000000E+00  0.00000000E+00  7.84746297E-01  0.00000000E+00  0.00000000E+00
  0.00000000E+00 -5.12685446E-01  0.00000000E+00  0.00000000E+00  0.00000000E+00
  7.84746297E-01  0.00000000E+00  0.00000000E+00  0.00000000E+00 -5.12685446E-01
  0.00000000E+00  0.00000000E+00  0.00000000E+00  7.84746297E-01  0.00000000E+00
  0.00000000E+00  0.00000000E+00 -5.12685446E-01  0.00000000E+00 -8.62642730E-01
  0.00000000E+00  0.00000000E+00  0.00000000E+00  1.46905395E+00  0.00000000E+00
  0.00000000E+00  0.00000000E+00  4.31321365E-01  0.00000000E+00  0.00000000E+00
  0.00000000E+00 -7.34526977E-01  0.00000000E+00  0.00000000E+00  0.00000000E+00
  4.31321365E-01  0.00000000E+00  0.00000000E+00  0.00000000E+00 -7.34526977E-01
  0.00000000E+00  0.00000000E+00  0.00000000E+00  0.00000000E+00  0.00000000E+00
 -8.62642730E-01  0.00000000E+00  0.00000000E+00  0.00000000E+00  1.46905395E+00
  0.00000000E+00  0.00000000E+00  0.00000000E+00  4.31321365E-01  0.00000000E+00
  0.00000000E+00  0.00000000E+00 -7.34526977E-01  0.00000000E+00  0.00000000E+00
  0.00000000E+00  4.31321365E-01  0.00000000E+00  0.00000000E+00  0.00000000E+00
 -7.34526977E-01  0.00000000E+00  0.00000000E+00  0.00000000E+00  0.00000000E+00
  0.00000000E+00  0.00000000E+00  0.00000000E+00  0.00000000E+00  0.00000000E+00
  5.55143909E-01  0.00000000E+00  0.00000000E+00  0.00000000E+00  3.25985888E-01
  0.00000000E+00  0.00000000E+00  0.00000000E+00 -5.55143909E-01  0.00000000E+00
  0.00000000E+00  0.00000000E+00 -3.25985888E-01  0.00000000E+00  0.00000000E+00
  0.00000000E+00  0.00000000E+00  0.00000000E+00  0.00000000E+00  0.00000000E+00
  0.00000000E+00  0.00000000E+00  0.00000000E+00  0.00000000E+00  0.00000000E+00
  0.00000000E+00  5.55143909E-01  0.00000000E+00  0.00000000E+00  0.00000000E+00
  3.25985888E-01  0.00000000E+00  0.00000000E+00  0.00000000E+00 -5.55143909E-01
  0.00000000E+00  0.00000000E+00  0.00000000E+00 -3.25985888E-01  0.00000000E+00
  0.00000000E+00  0.00000000E+00  0.00000000E+00  0.00000000E+00  0.00000000E+00
  0.00000000E+00  0.00000000E+00  0.00000000E+00 -7.47070518E-01  0.00000000E+00
  0.00000000E+00  0.00000000E+00  1.27223804E+00  0.00000000E+00  0.00000000E+00
  0.00000000E+00  7.47070518E-01  0.00000000E+00  0.00000000E+00  0.00000000E+00
 -1.27223804E+00  0.00000000E+00  0.00000000E+00  0.00000000E+00  0.00000000E+00
  0.00000000E+00  0.00000000E+00  0.00000000E+00  0.00000000E+00  0.00000000E+00
  0.00000000E+00  0.00000000E+00  0.00000000E+00  0.00000000E+00 -7.47070518E-01
  0.00000000E+00  0.00000000E+00  0.00000000E+00  1.27223804E+00  0.00000000E+00
  0.00000000E+00  0.00000000E+00  7.47070518E-01  0.00000000E+00  0.00000000E+00
  0.00000000E+00 -1.27223804E+00  0.00000000E+00
Total SCF Density                          R   N=         156
  4.19698287E-02  0.00000000E+00  2.91120741E-02  4.81409864E-03  7.15789390E-02
  0.00000000E+00  8.24409178E-02 -5.37764278E-17  7.31545902E-02 -1.20971598E-02
  1.80199265E-01  0.00000000E+00  7.31545902E-02  1.20971598E-02  1.56844491E-01
 -8.67361738E-17  1.97549805E-01  3.26676913E-02  3.81121877E-01  0.00000000E+00
  1.56555351E-02  2.69771144E-04 -2.91576123E-02  5.18775465E-03 -8.14368785E-03
  8.38595765E-04 -9.65702172E-02  1.72278376E-02  8.97269111E-02  0.00000000E+00
  4.73467957E-03  6.91198510E-04  3.19977490E-02 -2.69771144E-04  8.78550055E-03
  1.04715345E-03  5.17556611E-02 -8.38595765E-04 -1.99049182E-03  1.79311382E-04
  2.38218567E-02  0.00000000E+00 -7.33603657E-03  8.38595765E-04 -9.70962130E-02
  1.73062195E-02 -1.10046377E-01  2.57818285E-03 -3.07404323E-01  5.48716894E-02
  2.02447819E-01  4.74837183E-14 -5.00182890E-03 -4.50584545E-04  5.04271067E-01
  0.00000000E+00  8.25950470E-03  9.68771529E-04  5.09480098E-02 -8.38595765E-04
  1.65018011E-02  1.31303065E-03  8.46063829E-02 -2.57818285E-03 -5.00182889E-03
  4.50584546E-04  3.68375900E-02 -4.73069934E-14 -1.35071541E-02  1.21677791E-03
  5.70500753E-02  0.00000000E+00  3.86634858E-02 -2.69771144E-04  1.60499289E-02
 -3.02021136E-03  7.54826979E-02 -8.38595765E-04  4.99127360E-02 -9.51235442E-03
  1.71609053E-02  2.69771144E-04 -3.83846254E-03  7.71933288E-04 -1.86450747E-03
  8.38595765E-04 -5.06937355E-03  1.25615117E-03  3.86264119E-02  0.00000000E+00
 -1.78423630E-02 -2.85874180E-03  8.98979831E-03  2.69771144E-04 -5.54429817E-02
 -8.76263659E-03 -3.18707246E-02  8.38595765E-04  3.00538294E-02  5.10701987E-03
  3.04923788E-02 -2.69771144E-04  1.00286344E-01  1.70188398E-02  4.54764807E-02
 -8.38595765E-04 -2.71215823E-02 -4.99341003E-03  7.49223560E-02  0.00000000E+00
  7.54261551E-02 -8.38595765E-04  4.89617318E-02 -9.34649322E-03  1.64002238E-01
 -2.57818285E-03  1.51278185E-01 -2.90539952E-02 -2.72870143E-03  8.38595765E-04
 -5.49438186E-03  1.34363045E-03 -9.21158519E-02  2.57818285E-03 -5.82692441E-03
  2.27466579E-03  7.40393766E-02 -4.71877312E-14 -6.81527613E-02  1.25477444E-02
  1.57511381E-01  0.00000000E+00 -5.63939859E-02 -8.92849778E-03 -3.18141819E-02
  8.38595765E-04 -1.72627939E-01 -2.71307249E-02 -1.89442232E-01  2.57818285E-03
  9.98613359E-02  1.69313606E-02  4.63406747E-02 -8.38595765E-04  3.18079200E-01
  5.39100543E-02  6.66758583E-02 -2.57818285E-03 -6.81527613E-02 -1.25477444E-02
  1.65246032E-01  4.70803951E-14 -1.84042651E-01 -3.38844692E-02  4.03809761E-01
  0.00000000E+00
ONIOM Charges                              I   N=          16
           0           0           0           0           0           0
           0           0           0           0           0           0
           0           0           0           0
ONIOM Multiplicities                       I   N=          16
           2           0           0           0           0           0
           0           0           0           0           0           0
           0           0           0           0
Atom Layers                                I   N=           3
           1           1           1
Atom Modifiers                             I   N=           3
           0           0           0
Force Field                                I                0
Atom Modified Types                        C   N=           3
                                    
Int Atom Modified Types                    I   N=           3
           0           0           0
Link Atoms                                 I   N=           3
           0           0           0
Atom Modified MM Charges                   R   N=           3
  0.00000000E+00  0.00000000E+00  0.00000000E+00
Link Distances                             R   N=          12
  0.00000000E+00  0.00000000E+00  0.00000000E+00  0.00000000E+00  0.00000000E+00
  0.00000000E+00  0.00000000E+00  0.00000000E+00  0.00000000E+00  0.00000000E+00
  0.00000000E+00  0.00000000E+00
Cartesian Gradient                         R   N=           9
  0.00000000E+00  0.00000000E+00 -0.00000000E+00  0.00000000E+00  0.00000000E+00
 -0.00000000E+00  0.00000000E+00  0.00000000E+00 -0.00000000E+00
Nonadiabatic coupling                      R   N=           9
  0.00000000E+00  0.00000000E+00  0.00000000E+00  0.00000000E+00  0.00000000E+00
  0.00000000E+00  0.00000000E+00  0.00000000E+00  0.00000000E+00
Dipole Moment                              R   N=           3
  2.87334974E-15 -1.10022177E-10 -4.14426530E-27
Quadrupole Moment                          R   N=           6
 -2.61695119E-04 -2.61695502E-04  5.23390622E-04 -9.65159522E-15 -2.45782451E-20
  2.31057035E-20
ClPar MaxAn                                I              200
ClPar NIntPar                              I                4
ClPar NRealPar                             I               16
ClPar NBits                                I               30
ClPar LenBitVec                            I                1
ClPar Read BitMap                          I   N=         200
           0           0           0           0           0           0
           0           0           0           0           0           0
           0           0           0           0           0           0
           0           0           0           0           0           0
           0           0           0           0           0           0
           0           0           0           0           0           0
           0           0           0           0           0           0
           0           0           0           0           0           0
           0           0           0           0           0           0
           0           0           0           0           0           0
           0           0           0           0           0           0
           0           0           0           0           0           0
           0           0           0           0           0           0
           0           0           0           0           0           0
           0           0           0           0           0           0
           0           0           0           0           0           0
           0           0           0           0           0           0
           0           0           0           0           0           0
           0           0           0           0           0           0
           0           0           0           0           0           0
           0           0           0           0           0           0
           0           0           0           0           0           0
           0           0           0           0           0           0
           0           0           0           0           0           0
           0           0           0           0           0           0
           0           0           0           0           0           0
           0           0           0           0           0           0
           0           0           0           0           0           0
           0           0           0           0           0           0
           0           0           0           0           0           0
           0           0           0           0           0           0
           0           0           0           0           0           0
           0           0           0           0           0           0
           0           0
ClPar Default BitMap                       I   N=         200
        2016        2016        2016        2016        2016        2016
        2016        2016        2016        2016        2016        2016
        2016        2016        2016        2016        2016        2016
        2016        2016        2016        2016        2016        2016
        2016        2016        2016        2016        2016        2016
        2016        2016        2016        2016        2016        2016
        2016        2016        2016        2016        2016        2016
        2016        2016        2016        2016        2016        2016
        2016        2016        2016        2016        2016        2016
        2016        2016        2016        2016        2016        2016
        2016        2016        2016        2016        2016        2016
        2016        2016        2016        2016        2016        2016
        2016        2016        2016        2016        2016        2016
        2016        2016        2016        2016        2016        2016
        2016        2016         480         480         480         480
         480         480         480         480         480         480
         480         480         480         480         480         480
         480         480         480         480         480         480
         480         480         480         480         480         480
         480         480         480         480         480         480
         480         480         480         480         480         480
         480         480         480         480         480         480
         480         480         480         480         480         480
         480         480         480         480         480         480
         480         480         480         480         480         480
         480         480         480         480         480         480
         480         480         480         480         480         480
         480         480         480         480         480         480
         480         480         480         480         480         480
         480         480         480         480         480         480