HeKr                                                                    
SP        RHF                                                         STO-3G              
Number of atoms                            I                2
Info1-9                                    I   N=           9
           9           9           0           0           0         110
           1           1           2
Full Title                                 C   N=           1
HeKr        
Route                                      C   N=           9
#p rhf/sto-3g symmetry=none SCF=(Conver=8,MaxCycle=3000) Int
egral=(Grid=UltraFine) gfinput pop=full         
Charge                                     I                0
Multiplicity                               I                1
Number of electrons                        I               38
Number of alpha electrons                  I               19
Number of beta electrons                   I               19
Number of basis functions                  I               19
Number of independent functions            I               19
Number of point charges in /Mol/           I                0
Number of translation vectors              I                0
Atomic numbers                             I   N=           2
           2          36
Nuclear charges                            R   N=           2
  2.00000000E+00  3.60000000E+01
Current cartesian coordinates              R   N=           6
  0.00000000E+00  0.00000000E+00  0.00000000E+00  0.00000000E+00  0.00000000E+00
  9.44863062E+00
Number of symbols in /Mol/                 I                0
Force Field                                I                0
Atom Types                                 C   N=           2
                        
Int Atom Types                             I   N=           2
           0           0
MM charges                                 R   N=           2
  0.00000000E+00  0.00000000E+00
Integer atomic weights                     I   N=           2
           4          84
Real atomic weights                        R   N=           2
  4.00260325E+00  8.39115064E+01
Atom fragment info                         I   N=           2
           0           0
Atom residue num                           I   N=           2
           0           0
Nuclear spins                              I   N=           2
           0           0
Nuclear ZEff                               R   N=           2
 -2.00000000E+00 -2.41200000E+01
Nuclear ZNuc                               R   N=           2
  2.00000000E+00  3.60000000E+01
Nuclear QMom                               R   N=           2
  0.00000000E+00  0.00000000E+00
Nuclear GFac                               R   N=           2
  0.00000000E+00  0.00000000E+00
MicOpt                                     I   N=           2
          -1          -1
Number of residues                         I                0
Number of secondary structures             I                0
Number of contracted shells                I                6
Number of primitive shells                 I               18
Pure/Cartesian d shells                    I                0
Pure/Cartesian f shells                    I                0
Highest angular momentum                   I                2
Largest degree of contraction              I                3
Shell types                                I   N=           6
           0           0          -1          -1          -1          -2
Number of primitives per shell             I   N=           6
           3           3           3           3           3           3
Shell to atom map                          I   N=           6
           1           2           2           2           2           2
Primitive exponents                        R   N=          18
  6.36242139E+00  1.15892300E+00  3.13649791E-01  2.78216005E+03  5.06773927E+02
  1.37152802E+02  2.33951412E+02  5.43652768E+01  1.76812753E+01  2.14568467E+01
  6.54502216E+00  2.52527302E+00  1.59004934E+00  5.86828205E-01  2.59149523E-01
  2.14568467E+01  6.54502216E+00  2.52527302E+00
Contraction coefficients                   R   N=          18
  1.54328967E-01  5.35328142E-01  4.44634542E-01  1.54328967E-01  5.35328142E-01
  4.44634542E-01 -9.99672292E-02  3.99512826E-01  7.00115469E-01 -2.27763502E-01
  2.17543604E-01  9.16676961E-01 -3.08844121E-01  1.96064117E-02  1.13103444E+00
  2.19767951E-01  6.55547363E-01  2.86573259E-01
P(S=P) Contraction coefficients            R   N=          18
  0.00000000E+00  0.00000000E+00  0.00000000E+00  0.00000000E+00  0.00000000E+00
  0.00000000E+00  1.55916275E-01  6.07683719E-01  3.91957393E-01  4.95151116E-03
  5.77766469E-01  4.84646037E-01 -1.21546860E-01  5.71522760E-01  5.49894947E-01
  0.00000000E+00  0.00000000E+00  0.00000000E+00
Coordinates of each shell                  R   N=          18
  0.00000000E+00  0.00000000E+00  0.00000000E+00  0.00000000E+00  0.00000000E+00
  9.44863062E+00  0.00000000E+00  0.00000000E+00  9.44863062E+00  0.00000000E+00
  0.00000000E+00  9.44863062E+00  0.00000000E+00  0.00000000E+00  9.44863062E+00
  0.00000000E+00  0.00000000E+00  9.44863062E+00
Num ILSW                                   I              100
ILSW                                       I   N=         100
           0           0           0           0           2           0
           0           0           0           0           0          -1
           5           0           0           0           0           0
           0           0           0           0           0           0
           1           1           0           0           0           0
           0           0      100000           0          -1           0
           0           0           0           0           0           0
           0           0           0           1           0           0
           0 -2000000000           1           0           0           0
           0           0           4          52           0           0
           0           0           0           0           0           0
           0           0           0           2           0           1
           0           0           0           0           0           0
           0           0           0           0           0           0
           0           0           0           0           0           0
           0           0           0           0           0           0
           0           0           0           0
Num RLSW                                   I               52
RLSW                                       R   N=          52
  1.00000000E+00  1.00000000E+00  1.00000000E+00  1.00000000E+00  1.00000000E+00
  0.00000000E+00  0.00000000E+00  1.00000000E+00  0.00000000E+00  0.00000000E+00
  0.00000000E+00  0.00000000E+00  1.00000000E+00  0.00000000E+00  0.00000000E+00
  0.00000000E+00  0.00000000E+00  1.00000000E+00  0.00000000E+00  0.00000000E+00
  0.00000000E+00  0.00000000E+00  1.00000000E+00  0.00000000E+00  0.00000000E+00
  0.00000000E+00  0.00000000E+00  1.00000000E+00  0.00000000E+00  0.00000000E+00
  0.00000000E+00  0.00000000E+00  1.00000000E+00  0.00000000E+00  0.00000000E+00
  0.00000000E+00  0.00000000E+00  0.00000000E+00  1.00000000E+00  1.00000000E+00
  0.00000000E+00  1.00000000E+00  0.00000000E+00  0.00000000E+00  0.00000000E+00
  0.00000000E+00  0.00000000E+00  0.00000000E+00  0.00000000E+00  0.00000000E+00
  0.00000000E+00  0.00000000E+00
MxBond                                     I                1
NBond                                      I   N=           2
           0           0
IBond                                      I   N=           2
           0           0
RBond                                      R   N=           2
  0.00000000E+00  0.00000000E+00
Virial Ratio                               R      1.999919477625584E+00
SCF Energy                                 R     -2.725513784036752E+03
Total Energy                               R     -2.725513784036752E+03
RMS Density                                R      2.081283773912230E-16
Job Status                                 I                1
Nuclear derivative order                   I                0
External E-field                           R   N=          35
  0.00000000E+00  0.00000000E+00  0.00000000E+00  0.00000000E+00  0.00000000E+00
  0.00000000E+00  0.00000000E+00  0.00000000E+00  0.00000000E+00  0.00000000E+00
  0.00000000E+00  0.00000000E+00  0.00000000E+00  0.00000000E+00  0.00000000E+00
  0.00000000E+00  0.00000000E+00  0.00000000E+00  0.00000000E+00  0.00000000E+00
  0.00000000E+00  0.00000000E+00  0.00000000E+00  0.00000000E+00  0.00000000E+00
  0.00000000E+00  0.00000000E+00  0.00000000E+00  0.00000000E+00  0.00000000E+00
  0.00000000E+00  0.00000000E+00  0.00000000E+00  0.00000000E+00  0.00000000E+00
IOpCl                                      I                0
IROHF                                      I                0
Alpha Orbital Energies                     R   N=          19
 -5.14279324E+02 -6.78375202E+01 -6.22185685E+01 -6.22185685E+01 -6.22185685E+01
 -1.01226728E+01 -7.77974724E+00 -7.77974724E+00 -7.77974724E+00 -2.87592529E+00
 -2.87592529E+00 -2.87592529E+00 -2.87592529E+00 -2.87592529E+00 -9.63162271E-01
 -8.76035508E-01 -4.03702158E-01 -4.03702158E-01 -4.03702158E-01
Alpha MO coefficients                      R   N=         361
 -4.34962867E-10  9.94078175E-01  1.44536496E-02 -3.18547179E-16  4.12241669E-16
  3.36617745E-16 -1.70398796E-03  2.00287657E-17 -1.01773124E-16  3.96983276E-16
  2.77741441E-04  3.38096814E-17  1.25206660E-16 -1.94653101E-15 -1.39543003E-17
  1.34874289E-20  2.52736424E-20 -1.26418902E-18  1.07934501E-20  1.71004866E-08
 -4.46460831E-01  1.05680496E+00  1.22109349E-15 -8.05996580E-16  9.64845177E-14
  8.26140670E-02  6.53316578E-17  5.68520309E-17 -1.26861892E-14 -1.13144944E-02
  8.04317871E-18  2.94994414E-17  7.04640808E-14 -1.59334452E-15  1.75155606E-16
  3.89985913E-16  4.41162251E-17  4.59972516E-18  2.71010791E-10 -2.04734107E-15
  4.73476955E-15  8.44780340E-01  5.18410258E-01 -5.78949867E-02  4.67329730E-16
  1.55254690E-02  9.52740258E-03 -1.06400064E-03 -6.96060032E-16 -1.01608382E-03
 -6.23532828E-04  6.96348583E-05 -1.78022028E-16  3.45417256E-15  2.12449442E-15
 -1.49696631E-16 -2.18470849E-16  2.78138763E-10 -3.15889927E-15  7.33333753E-15
 -5.21318032E-01  8.42883082E-01 -5.94177301E-02 -2.39302551E-16 -9.58084199E-03
  1.54906010E-02 -1.09198579E-03 -8.33722003E-16  6.27030238E-04 -1.01380184E-03
  7.14663816E-05 -1.89596335E-16 -2.11588979E-15  3.55502399E-15 -2.62925564E-17
 -8.34621703E-17 -4.63136159E-09  4.10613768E-14 -9.81729402E-14  1.81255075E-02
  8.09553094E-02  9.89379882E-01 -7.45894601E-15  3.33112634E-04  1.48780587E-03
  1.81829358E-02  7.77639820E-15 -2.18009747E-05 -9.73713237E-05 -1.19000507E-03
  4.79692317E-15  1.06570198E-16  4.09613472E-16  2.55866716E-16  9.01442939E-17
 -3.60688201E-08  1.88519119E-01 -5.43913975E-01 -1.40109308E-16 -7.41086269E-16
 -2.18793577E-13  1.07679862E+00 -1.44333232E-16  1.50370819E-15  5.45705387E-13
  3.26972159E-02  1.98520223E-16  1.30811017E-16 -9.79628126E-14 -6.23774402E-14
  2.17615423E-17  4.85393174E-17  2.24336626E-16 -6.11306260E-16 -1.63682778E-11
  1.24178602E-16 -3.63871932E-16 -3.86060444E-01  1.88847702E-01  5.91150731E-05
  7.22502162E-16  9.61904132E-01 -4.70530943E-01 -1.47290493E-04 -3.92323971E-17
  4.03939586E-02 -1.97593573E-02 -6.18527968E-06  7.85871155E-17  1.67461834E-13
 -8.18756012E-14  2.01212277E-16 -7.53237788E-17  9.97748687E-09 -7.22609454E-15
  2.08906008E-14 -1.88187185E-01 -3.84698872E-01 -3.60344991E-02 -4.16730559E-14
  4.68885207E-01  9.58511655E-01  8.97831782E-02 -1.31672235E-14  1.96902467E-02
  4.02514958E-02  3.77033206E-03  1.74358306E-14  8.16717540E-14  1.66896313E-13
  3.58051972E-16 -9.95177750E-17  1.18579983E-07 -8.33124867E-14  2.40797863E-13
  1.57810451E-02  3.23951730E-02 -4.28261177E-01 -4.80133591E-13 -3.93198857E-02
 -8.07154717E-02  1.06705103E+00 -1.56853980E-13 -1.65118933E-03 -3.38954509E-03
  4.48094710E-02  2.12237045E-13 -6.90706867E-15 -1.40388236E-14 -4.04918966E-16
 -4.30563218E-16 -6.69762609E-12  4.63062620E-17 -1.22830205E-16  2.17436910E-16
  2.54757918E-16 -6.27265522E-16  1.50654283E-16 -4.91262225E-16 -4.81832108E-16
  1.58470287E-15  2.01945077E-16 -1.03674019E-16 -8.70876488E-16 -1.18713072E-15
 -3.19118562E-03  2.54156576E-03  4.05859894E-03  4.40420634E-01  8.97773106E-01
 -7.51556848E-11 -4.64739323E-16  1.37293504E-15  7.82349522E-17 -8.38645163E-17
 -3.07986795E-15 -3.01144020E-15  4.50867251E-17  7.92534717E-16  7.94672844E-15
  1.72468479E-16  4.07983040E-16 -8.46493772E-16  1.08901001E-15 -3.58104341E-02
 -1.62775923E-03 -3.48784680E-03  8.97163197E-01 -4.40228345E-01 -7.02166897E-13
  9.87903075E-17 -2.45247030E-16  2.91443254E-14  6.90288917E-14 -1.14011209E-16
  1.03553093E-16 -7.63297764E-14 -1.80841043E-13  1.54249149E-16 -7.24375013E-16
 -7.59165767E-15 -1.79475453E-14  3.37276235E-17 -3.36416740E-04  3.88793507E-01
  9.21304738E-01  1.36154750E-03 -5.93477110E-03 -3.92511841E-14  2.18259576E-18
 -5.15528080E-18  6.89717026E-14 -2.90872299E-14 -2.82923569E-17 -6.80436157E-19
 -1.80877374E-13  7.62946419E-14  6.53274724E-17 -1.23449981E-17 -1.81352568E-14
  7.72274786E-15  1.59713015E-17 -1.86236488E-05  9.21319972E-01 -3.88804457E-01
 -2.08001737E-04 -7.48568997E-04  2.09735842E-09  1.10529929E-14 -3.22245169E-14
 -6.92076069E-18 -8.73477842E-17  8.59979174E-14  6.72455668E-14  3.87851855E-18
  1.77720438E-16 -2.25668508E-13  1.42495056E-15  4.95412960E-17  1.12941857E-16
 -1.73432048E-14  9.99353449E-01  9.78380844E-05  1.90875224E-04  3.35554170E-02
 -1.29101651E-02  4.83438959E-05 -4.31053627E-02  1.28789828E-01 -1.62517652E-17
 -3.92200049E-17 -8.95680645E-11 -2.85889660E-01  6.84700566E-19  2.88266968E-17
  2.64508775E-10  1.02597875E+00  4.78421187E-16  8.88400457E-16 -8.56421142E-10
 -1.04661346E-13  2.90404398E-16  6.56836005E-16 -3.09790473E-16 -2.86552081E-17
  9.99999999E-01  2.15030657E-06 -6.42517310E-06  2.28162483E-17  4.07875887E-17
 -2.25183977E-06  1.42664654E-05 -7.10500008E-17 -1.10645319E-16  6.65259964E-06
 -5.12583411E-05  3.80052625E-16  5.97402566E-16 -2.15832836E-05 -2.10539967E-09
 -1.46122496E-15 -3.60908519E-15 -1.34452805E-16  2.80766189E-16  3.88243849E-10
  1.14241369E-16 -4.58880475E-16  3.52450256E-02  1.00016046E-01  1.63729912E-06
  1.04986304E-15 -1.04332149E-01 -2.96067000E-01 -4.84672468E-06 -4.26294080E-15
  3.42011093E-01  9.70536878E-01  1.58880424E-05 -9.18058733E-17  3.61609916E-15
  1.03265851E-14  3.26957776E-16  3.06642363E-16  2.93454996E-11  3.37880848E-18
 -1.96052422E-17  1.00016046E-01 -3.52450256E-02  1.23755860E-07  4.79127911E-17
 -2.96067000E-01  1.04332149E-01 -3.66341480E-07 -2.83010967E-16  9.70536878E-01
 -3.42011093E-01  1.20090357E-06  4.54774298E-18  1.03766401E-14 -3.65521142E-15
 -1.89181259E-16  5.01683336E-17  2.51457775E-05  9.49601770E-12 -2.83862793E-11
 -6.60894879E-07 -1.50309077E-06  1.06044430E-01  6.31178470E-11  1.95637773E-06
  4.44944181E-06 -3.13912194E-01 -2.28151197E-10 -6.41319948E-06 -1.45857099E-05
  1.02903519E+00 -3.67968254E-14 -6.58151434E-17 -1.17325723E-16  1.46747448E-16
  8.33401209E-16
Orthonormal basis                          R   N=         361
  4.08363762E-07  3.90680342E-01  5.31792017E-01 -8.80309937E-17  2.64092981E-16
 -1.89105982E-12  4.12110475E-01 -2.49272783E-17  2.75238246E-16 -2.73389360E-12
  1.53106590E-01 -1.28846405E-17  1.15752004E-16 -3.90404585E-12  4.62258462E-18
  0.00000000E+00  0.00000000E+00  3.39796318E-17  0.00000000E+00 -2.75067720E-06
  5.75511808E-12  6.27480697E-12 -1.78365853E-16  7.36478363E-16  5.04162265E-01
  1.51433853E-12 -1.59306516E-16  7.71066608E-16  5.81554749E-01 -8.74055443E-12
 -7.97784845E-17  3.85915970E-16  3.08526580E-01 -4.04652583E-17  0.00000000E+00
  0.00000000E+00  4.18326695E-28  0.00000000E+00 -7.02716479E-19 -2.59155998E-16
 -2.34869549E-16 -1.06799926E-01  4.92720372E-01 -6.02517523E-16 -2.70127585E-16
 -1.23194472E-01  5.68356444E-01 -9.03760219E-16 -1.51488589E-16 -6.53571641E-02
  3.01524612E-01 -4.78577994E-16 -5.47999964E-16  0.00000000E+00  0.00000000E+00
 -2.89833621E-25  0.00000000E+00 -2.37588211E-18 -1.08511423E-16 -1.17070385E-16
  4.92720372E-01  1.06799926E-01  1.05273468E-16  1.04479864E-16  5.68356444E-01
  1.23194472E-01 -8.78131043E-17  1.14338379E-16  3.01524612E-01  6.53571641E-02
  7.76806698E-17 -1.31762798E-16  0.00000000E+00  0.00000000E+00  2.03328842E-16
  0.00000000E+00  7.95397073E-06 -4.63111382E-01 -1.85117015E-01  1.56462244E-16
  1.56462244E-16  1.06506743E-10  4.28613197E-01 -7.85196627E-17 -2.69782834E-16
  4.33125985E-11  6.71011453E-01 -1.02404906E-16 -4.46197871E-16 -1.55460547E-10
  4.00116223E-16  0.00000000E+00  0.00000000E+00  8.96179404E-17  0.00000000E+00
  9.99969132E-01  6.86876627E-06  6.09077518E-07  4.67562187E-19 -8.66684111E-18
  1.24234191E-04 -7.48448207E-06  1.36130526E-18  4.05645514E-18  8.92567953E-06
 -2.16393178E-06  2.00680038E-18  2.30857938E-17 -2.10919819E-04  7.85326115E-03
  0.00000000E+00  0.00000000E+00  1.24610945E-10  0.00000000E+00  0.00000000E+00
  0.00000000E+00  0.00000000E+00  0.00000000E+00  0.00000000E+00  0.00000000E+00
  0.00000000E+00  0.00000000E+00  0.00000000E+00  0.00000000E+00  0.00000000E+00
  0.00000000E+00  0.00000000E+00  0.00000000E+00  0.00000000E+00  1.00000000E+00
  0.00000000E+00  0.00000000E+00  0.00000000E+00  0.00000000E+00  0.00000000E+00
  0.00000000E+00  0.00000000E+00  0.00000000E+00  0.00000000E+00  0.00000000E+00
  0.00000000E+00  0.00000000E+00  0.00000000E+00  0.00000000E+00  0.00000000E+00
  0.00000000E+00  0.00000000E+00  0.00000000E+00  0.00000000E+00  0.00000000E+00
  0.00000000E+00  1.00000000E+00  0.00000000E+00  0.00000000E+00  0.00000000E+00
  0.00000000E+00  0.00000000E+00  0.00000000E+00  0.00000000E+00  0.00000000E+00
  0.00000000E+00  0.00000000E+00  0.00000000E+00  0.00000000E+00  0.00000000E+00
  0.00000000E+00  0.00000000E+00  0.00000000E+00  1.00000000E+00  0.00000000E+00
  0.00000000E+00 -2.06675868E-06 -1.41965719E-11 -1.25886073E-12  3.60139735E-15
 -1.00390912E-14 -2.56770034E-10  1.54691443E-11 -2.90147050E-16 -6.73092581E-16
 -1.84477956E-11  4.47226110E-12 -5.72212459E-15  1.75907930E-14  4.35933848E-10
  2.63148055E-04  0.00000000E+00  0.00000000E+00  9.99999965E-01  0.00000000E+00
 -7.85326064E-03 -5.39438769E-08 -4.78339204E-09 -6.06026663E-17 -1.19221114E-15
 -9.75673660E-07  5.87794028E-08  2.09985730E-18  1.65245190E-16 -7.00978535E-08
  1.69944444E-08  1.22506319E-16  2.84906558E-15  1.65645954E-06  9.99969128E-01
  0.00000000E+00  0.00000000E+00 -2.63156171E-04  0.00000000E+00  1.78997733E-13
 -5.62917067E-17 -1.45106284E-16  1.73473518E-01 -4.80231500E-01 -3.70507488E-10
  1.99192940E-16  6.06099823E-03 -1.67788277E-02 -1.29450956E-11  6.57053615E-16
 -2.94897133E-01  8.16371827E-01  6.29846075E-10 -2.84997725E-15  0.00000000E+00
  0.00000000E+00 -2.18069438E-14  0.00000000E+00 -7.41172741E-12 -2.25569531E-16
  2.33745125E-17 -4.80231500E-01 -1.73473518E-01  1.53415341E-08  2.26582158E-16
 -1.67788277E-02 -6.06099823E-03  5.36018503E-10  1.31738339E-16  8.16371827E-01
  2.94897133E-01 -2.60799141E-08 -1.17316308E-15  0.00000000E+00  0.00000000E+00
 -5.26542848E-16  0.00000000E+00  2.46679984E-04  1.66689585E-09  9.04443013E-11
 -1.45548741E-08 -4.86370215E-09 -5.10602918E-01 -1.82405074E-09 -5.08533443E-10
 -1.69933114E-10 -1.78399748E-02 -3.00257471E-10  2.47426277E-08  8.26807371E-09
  8.68001863E-01 -1.15900377E-13  0.00000000E+00  0.00000000E+00  1.89080624E-20
  0.00000000E+00 -6.58936736E-06  5.85012925E-01 -1.96553900E-01 -1.21848081E-16
  2.13234141E-16  8.61036114E-11 -5.64861464E-01 -2.39398840E-16  2.49438644E-16
 -3.28008896E-11  7.10342199E-01  2.83488655E-16 -2.94589127E-16 -1.21639949E-10
  2.59386834E-16  0.00000000E+00  0.00000000E+00  1.99622703E-16  0.00000000E+00
 -1.83885247E-12 -4.80063333E-16  1.66761543E-16  4.80540959E-01 -6.60221050E-01
 -3.54050045E-07  3.18438040E-16 -5.60447043E-01  7.70004988E-01  4.12922764E-07
  1.19473074E-16  2.71159849E-01 -3.72549804E-01 -1.99783504E-07 -1.10513919E-16
  0.00000000E+00  0.00000000E+00  3.56986617E-16  0.00000000E+00  1.34991596E-11
  2.74193526E-16 -4.57075782E-16 -6.60221050E-01 -4.80540959E-01  2.59910903E-06
  4.50046716E-16  7.70004988E-01  5.60447043E-01 -3.03129826E-06  5.43459452E-17
 -3.72549804E-01 -2.71159849E-01  1.46662631E-06 -1.05846362E-16  0.00000000E+00
  0.00000000E+00  7.78089383E-16  0.00000000E+00 -4.24115121E-06  1.02220982E-11
 -1.11474832E-11 -2.30976751E-06 -1.24325913E-06 -8.16585236E-01  1.69458841E-12
  2.69384398E-06  1.44999275E-06  9.52369975E-01  1.45550917E-11 -1.30335655E-06
 -7.01546773E-07 -4.60783051E-01  1.03899846E-16  0.00000000E+00  0.00000000E+00
 -5.90010030E-21  0.00000000E+00 -7.81968695E-07 -7.18033996E-01  1.03622892E+00
 -4.56982034E-16 -1.03859553E-16 -4.02431359E-12 -7.58579832E-01  5.11806075E-16
  1.51764682E-16  6.12630442E-12  2.74855540E-01 -2.75748163E-16 -7.24695256E-17
 -8.11464495E-12  4.15698116E-18  0.00000000E+00  0.00000000E+00  6.11586276E-17
  0.00000000E+00
Total SCF Density                          R   N=         190
  2.00000000E+00  1.03117308E-07  2.44983245E+00 -3.22574293E-07 -1.13108736E+00
  2.85894973E+00  1.75006720E-16 -4.61599237E-16 -4.65652234E-16  2.36341279E+00
 -1.80029802E-16  6.66503097E-16 -1.33728568E-16 -7.77156117E-16  2.36341279E+00
  7.17945502E-07  3.72011054E-14 -1.15888717E-13  5.82867088E-16  5.13478149E-16
  2.36341279E+00  8.16040167E-07  3.53485324E-01 -1.07044634E+00  6.52043562E-16
 -1.58980223E-15  2.92381694E-13  2.49611230E+00 -1.52085159E-16 -2.32102606E-17
  1.87517169E-16 -9.50768315E-01  2.77555756E-16 -4.78783679E-16 -2.19058020E-16
  2.49106552E+00  8.78210543E-17 -2.06006240E-16  4.71530866E-17  7.77156117E-16
 -9.50768315E-01 -8.32667268E-17  1.01228831E-16  1.55431223E-15  2.49106552E+00
 -2.22724931E-06 -1.14789016E-13  3.59075429E-13 -4.09394740E-16 -5.41233725E-16
 -9.50768315E-01 -9.08682210E-13  4.85722573E-16  1.66533454E-16  2.49106552E+00
 -3.31980802E-06 -6.54671215E-02  2.04795910E-01 -1.15266576E-16 -1.17206633E-15
 -1.19267303E-12 -5.18087219E-01  6.61065336E-17  6.91218905E-16  3.69636017E-12
  2.10765921E+00  1.62222077E-16  5.55488259E-17 -6.06624601E-17  1.77223573E-01
 -1.17961196E-15  2.12286785E-16  1.58685332E-16 -5.49791957E-01  9.99200722E-16
 -2.53703308E-16  4.51866791E-16  2.12187390E+00  1.36701786E-16  1.16865844E-16
  1.65343637E-16 -6.52256027E-16  1.77223573E-01  7.02563008E-17 -1.85073425E-16
  1.94289029E-16 -5.49791957E-01 -2.22044605E-16  4.11173572E-16 -6.66133815E-16
  2.12187390E+00  8.59592590E-06  4.43463358E-13 -1.38753897E-12 -4.76615275E-16
 -3.10515502E-16  1.77223573E-01  3.50788034E-12 -3.85108612E-16  5.46437895E-17
 -5.49791957E-01 -1.42665557E-11  2.72351586E-16  7.58236789E-16  2.12187390E+00
 -1.33686692E-11 -3.06543837E-17  7.95461896E-17  9.78456118E-17  4.03847941E-16
  2.79898699E-16 -2.10301762E-16 -1.04906578E-16 -4.30339058E-16 -2.93773767E-16
 -1.30229781E-16  1.47540095E-17  8.49003493E-17 -4.41540611E-16  2.00000000E+00
 -2.15221224E-16 -8.84597901E-17  2.09759465E-16 -1.28263159E-16  6.78218376E-17
 -1.88408291E-17  1.27129546E-17 -1.01617900E-16  7.32361330E-17  9.65267395E-17
  8.23865831E-18  5.18471206E-17  1.97811201E-16 -9.78585840E-17 -1.49348849E-17
  2.00000000E+00  4.91669022E-17 -1.98345281E-16  4.69948726E-16 -7.64343442E-17
  1.56417841E-16 -3.47851499E-17  3.25403003E-17  1.10769283E-16 -2.13511879E-17
  2.13626824E-16  1.83582243E-17  8.29726495E-17  2.24700747E-16 -2.13909095E-16
 -3.44776291E-17  1.11022302E-15  2.00000000E+00 -6.64678321E-17  1.83225450E-17
 -3.86059260E-17 -1.51817385E-16 -3.69577582E-17  5.71206798E-16 -9.00635502E-17
  3.10358925E-16  8.11813829E-16 -3.71871910E-16 -4.09832274E-17  5.19313438E-16
 -1.54263920E-15  1.23417332E-17 -7.63278329E-16 -1.30104261E-17 -1.74339709E-16
  2.00000000E+00 -1.03789119E-16 -2.63398873E-17  7.29429705E-17 -2.92632054E-16
 -5.16864744E-16  1.32601129E-16 -1.14936487E-16 -4.82699508E-17  2.36778291E-16
  2.17546524E-16  8.36663204E-17 -1.30508708E-16 -6.06638970E-17 -9.67388124E-16
  3.05311332E-16 -1.63518016E-16 -6.80445283E-16 -2.22044605E-16  2.00000000E+00
Mulliken Charges                           R   N=           2
  9.75322949E-16 -2.13162821E-14
ONIOM Charges                              I   N=          16
           0           0           0           0           0           0
           0           0           0           0           0           0
           0           0           0           0
ONIOM Multiplicities                       I   N=          16
           1           0           0           0           0           0
           0           0           0           0           0           0
           0           0           0           0
Atom Layers                                I   N=           2
           1           1
Atom Modifiers                             I   N=           2
           0           0
Force Field                                I                0
Atom Modified Types                        C   N=           2
                        
Int Atom Modified Types                    I   N=           2
           0           0
Link Atoms                                 I   N=           2
           0           0
Atom Modified MM Charges                   R   N=           2
  0.00000000E+00  0.00000000E+00
Link Distances                             R   N=           8
  0.00000000E+00  0.00000000E+00  0.00000000E+00  0.00000000E+00  0.00000000E+00
  0.00000000E+00  0.00000000E+00  0.00000000E+00
Cartesian Gradient                         R   N=           6
  0.00000000E+00  0.00000000E+00  0.00000000E+00  0.00000000E+00  0.00000000E+00
  0.00000000E+00
Nonadiabatic coupling                      R   N=           6
  0.00000000E+00  0.00000000E+00  0.00000000E+00  0.00000000E+00  0.00000000E+00
  0.00000000E+00
Dipole Moment                              R   N=           3
 -1.14832970E-15 -7.90108620E-16 -1.98951966E-11
Quadrupole Moment                          R   N=           6
  5.77058401E-10  5.77063730E-10 -1.15412568E-09  6.04449185E-16 -1.11862021E-14
 -8.54397253E-15
QEq coupling tensors                       R   N=          12
  1.09364369E-12  1.11774371E-20  1.09364369E-12  9.19208224E-21 -7.20366701E-20
 -2.18906375E-12 -8.24608530E-11  5.95060861E-14 -8.24608530E-11 -1.19974029E-14
  0.00000000E+00  1.50369791E-10
ClPar MaxAn                                I              200
ClPar NIntPar                              I                4
ClPar NRealPar                             I               16
ClPar NBits                                I               30
ClPar LenBitVec                            I                1
ClPar Read BitMap                          I   N=         200
           0           0           0           0           0           0
           0           0           0           0           0           0
           0           0           0           0           0           0
           0           0           0           0           0           0
           0           0           0           0           0           0
           0           0           0           0           0           0
           0           0           0           0           0           0
           0           0           0           0           0           0
           0           0           0           0           0           0
           0           0           0           0           0           0
           0           0           0           0           0           0
           0           0           0           0           0           0
           0           0           0           0           0           0
           0           0           0           0           0           0
           0           0           0           0           0           0
           0           0           0           0           0           0
           0           0           0           0           0           0
           0           0           0           0           0           0
           0           0           0           0           0           0
           0           0           0           0           0           0
           0           0           0           0           0           0
           0           0           0           0           0           0
           0           0           0           0           0           0
           0           0           0           0           0           0
           0           0           0           0           0           0
           0           0           0           0           0           0
           0           0           0           0           0           0
           0           0           0           0           0           0
           0           0           0           0           0           0
           0           0           0           0           0           0
           0           0           0           0           0           0
           0           0           0           0           0           0
           0           0           0           0           0           0
           0           0
ClPar Default BitMap                       I   N=         200
        2016        2016        2016        2016        2016        2016
        2016        2016        2016        2016        2016        2016
        2016        2016        2016        2016        2016        2016
        2016        2016        2016        2016        2016        2016
        2016        2016        2016        2016        2016        2016
        2016        2016        2016        2016        2016        2016
        2016        2016        2016        2016        2016        2016
        2016        2016        2016        2016        2016        2016