KCaKr                                                                   
SP        GHF                                                         STO-3G              
Number of atoms                            I                3
Info1-9                                    I   N=           9
          10          10           0           0           0         110
           1           1           2
Full Title                                 C   N=           1
KCaKr       
Route                                      C   N=           9
#p ghf/sto-3g symmetry=none SCF=(Conver=8,MaxCycle=3000) Int
egral=(Grid=UltraFine) gfinput pop=full         
Charge                                     I                0
Multiplicity                               I                2
Number of electrons                        I               75
Number of alpha electrons                  I               38
Number of beta electrons                   I               37
Number of basis functions                  I               44
Number of independent functions            I               44
Number of point charges in /Mol/           I                0
Number of translation vectors              I                0
Atomic numbers                             I   N=           3
          36          19          20
Nuclear charges                            R   N=           3
  3.60000000E+01  1.90000000E+01  2.00000000E+01
Current cartesian coordinates              R   N=           9
  0.00000000E+00  0.00000000E+00  0.00000000E+00  0.00000000E+00  1.88972612E+01
  0.00000000E+00  0.00000000E+00  0.00000000E+00  1.88972612E+01
Number of symbols in /Mol/                 I                0
Force Field                                I                0
Atom Types                                 C   N=           3
                                    
Int Atom Types                             I   N=           3
           0           0           0
MM charges                                 R   N=           3
  0.00000000E+00  0.00000000E+00  0.00000000E+00
Integer atomic weights                     I   N=           3
          84          39          40
Real atomic weights                        R   N=           3
  8.39115064E+01  3.89637079E+01  3.99625907E+01
Atom fragment info                         I   N=           3
           0           0           0
Atom residue num                           I   N=           3
           0           0           0
Nuclear spins                              I   N=           3
           0           3           0
Nuclear ZEff                               R   N=           3
 -2.41200000E+01 -2.24200000E+01 -2.30000000E+01
Nuclear ZNuc                               R   N=           3
  3.60000000E+01  1.90000000E+01  2.00000000E+01
Nuclear QMom                               R   N=           3
  0.00000000E+00  5.85000000E+00  0.00000000E+00
Nuclear GFac                               R   N=           3
  0.00000000E+00  3.91466000E-01  0.00000000E+00
MicOpt                                     I   N=           3
          -1          -1          -1
Number of residues                         I                0
Number of secondary structures             I                0
Number of contracted shells                I               13
Number of primitive shells                 I               39
Pure/Cartesian d shells                    I                0
Pure/Cartesian f shells                    I                0
Highest angular momentum                   I                2
Largest degree of contraction              I                3
Shell types                                I   N=          13
           0          -1          -1          -1          -2           0
          -1          -1          -1           0          -1          -1
          -1
Number of primitives per shell             I   N=          13
           3           3           3           3           3           3
           3           3           3           3           3           3
           3
Shell to atom map                          I   N=          13
           1           1           1           1           1           2
           2           2           2           3           3           3
           3
Primitive exponents                        R   N=          39
  2.78216005E+03  5.06773927E+02  1.37152802E+02  2.33951412E+02  5.43652768E+01
  1.76812753E+01  2.14568467E+01  6.54502216E+00  2.52527302E+00  1.59004934E+00
  5.86828205E-01  2.59149523E-01  2.14568467E+01  6.54502216E+00  2.52527302E+00
  7.71510368E+02  1.40531577E+02  3.80333290E+01  5.24020398E+01  1.21771071E+01
  3.96037317E+00  3.65158398E+00  1.01878266E+00  3.98744630E-01  5.03982250E-01
  1.86001147E-01  8.21400674E-02  8.54032495E+02  1.55563085E+02  4.21014418E+01
  5.95602994E+01  1.38405327E+01  4.50137080E+00  4.37470626E+00  1.22053194E+00
  4.77707930E-01  4.55848976E-01  1.68236941E-01  7.42952070E-02
Contraction coefficients                   R   N=          39
  1.54328967E-01  5.35328142E-01  4.44634542E-01 -9.99672292E-02  3.99512826E-01
  7.00115469E-01 -2.27763502E-01  2.17543604E-01  9.16676961E-01 -3.08844121E-01
  1.96064117E-02  1.13103444E+00  2.19767951E-01  6.55547363E-01  2.86573259E-01
  1.54328967E-01  5.35328142E-01  4.44634542E-01 -9.99672292E-02  3.99512826E-01
  7.00115469E-01 -2.19620369E-01  2.25595434E-01  9.00398426E-01 -3.08844121E-01
  1.96064117E-02  1.13103444E+00  1.54328967E-01  5.35328142E-01  4.44634542E-01
 -9.99672292E-02  3.99512826E-01  7.00115469E-01 -2.19620369E-01  2.25595434E-01
  9.00398426E-01 -3.08844121E-01  1.96064117E-02  1.13103444E+00
P(S=P) Contraction coefficients            R   N=          39
  0.00000000E+00  0.00000000E+00  0.00000000E+00  1.55916275E-01  6.07683719E-01
  3.91957393E-01  4.95151116E-03  5.77766469E-01  4.84646037E-01 -1.21546860E-01
  5.71522760E-01  5.49894947E-01  0.00000000E+00  0.00000000E+00  0.00000000E+00
  0.00000000E+00  0.00000000E+00  0.00000000E+00  1.55916275E-01  6.07683719E-01
  3.91957393E-01  1.05876043E-02  5.95167005E-01  4.62001012E-01 -1.21546860E-01
  5.71522760E-01  5.49894947E-01  0.00000000E+00  0.00000000E+00  0.00000000E+00
  1.55916275E-01  6.07683719E-01  3.91957393E-01  1.05876043E-02  5.95167005E-01
  4.62001012E-01 -1.21546860E-01  5.71522760E-01  5.49894947E-01
Coordinates of each shell                  R   N=          39
  0.00000000E+00  0.00000000E+00  0.00000000E+00  0.00000000E+00  0.00000000E+00
  0.00000000E+00  0.00000000E+00  0.00000000E+00  0.00000000E+00  0.00000000E+00
  0.00000000E+00  0.00000000E+00  0.00000000E+00  0.00000000E+00  0.00000000E+00
  0.00000000E+00  1.88972612E+01  0.00000000E+00  0.00000000E+00  1.88972612E+01
  0.00000000E+00  0.00000000E+00  1.88972612E+01  0.00000000E+00  0.00000000E+00
  1.88972612E+01  0.00000000E+00  0.00000000E+00  0.00000000E+00  1.88972612E+01
  0.00000000E+00  0.00000000E+00  1.88972612E+01  0.00000000E+00  0.00000000E+00
  1.88972612E+01  0.00000000E+00  0.00000000E+00  1.88972612E+01
Num ILSW                                   I              100
ILSW                                       I   N=         100
           6           0           0           0           2           0
           0           0           0           0           0          -1
           5           0           0           0           0           0
           0           0           0           0           0           0
           1           1           0           0           0           0
           0           0      100000           0          -1           0
           0           0           0           0           0           0
           0           0           0           1           0           0
           0 -2000000000           1           0           0           0
           0           0           4          52           0           0
           0           0           0           0           0           0
           0           0           0           3           0           1
           0           0           0           0           0           0
           0           0           0           0           0           0
           0           0           0           0           0           0
           0           0           0           0           0           0
           0           0           0           0
Num RLSW                                   I               52
RLSW                                       R   N=          52
  1.00000000E+00  1.00000000E+00  1.00000000E+00  1.00000000E+00  1.00000000E+00
  0.00000000E+00  0.00000000E+00  1.00000000E+00  0.00000000E+00  0.00000000E+00
  0.00000000E+00  0.00000000E+00  1.00000000E+00  0.00000000E+00  0.00000000E+00
  0.00000000E+00  0.00000000E+00  1.00000000E+00  0.00000000E+00  0.00000000E+00
  0.00000000E+00  0.00000000E+00  1.00000000E+00  0.00000000E+00  0.00000000E+00
  0.00000000E+00  0.00000000E+00  1.00000000E+00  0.00000000E+00  0.00000000E+00
  0.00000000E+00  0.00000000E+00  1.00000000E+00  0.00000000E+00  0.00000000E+00
  0.00000000E+00  0.00000000E+00  0.00000000E+00  1.00000000E+00  1.00000000E+00
  0.00000000E+00  1.00000000E+00  0.00000000E+00  0.00000000E+00  0.00000000E+00
  0.00000000E+00  0.00000000E+00  0.00000000E+00  0.00000000E+00  0.00000000E+00
  0.00000000E+00  0.00000000E+00
MxBond                                     I                1
NBond                                      I   N=           3
           0           0           0
IBond                                      I   N=           3
           0           0           0
RBond                                      R   N=           3
  0.00000000E+00  0.00000000E+00  0.00000000E+00
Virial Ratio                               R      1.999820460291900E+00
SCF Energy                                 R     -3.985772639636095E+03
Total Energy                               R     -3.985772639636095E+03
S**2                                       R      7.510414688400786E-01
RMS Density                                R      1.171219265798152E-09
Job Status                                 I                1
Nuclear derivative order                   I                0
External E-field                           R   N=          35
  0.00000000E+00  0.00000000E+00  0.00000000E+00  0.00000000E+00  0.00000000E+00
  0.00000000E+00  0.00000000E+00  0.00000000E+00  0.00000000E+00  0.00000000E+00
  0.00000000E+00  0.00000000E+00  0.00000000E+00  0.00000000E+00  0.00000000E+00
  0.00000000E+00  0.00000000E+00  0.00000000E+00  0.00000000E+00  0.00000000E+00
  0.00000000E+00  0.00000000E+00  0.00000000E+00  0.00000000E+00  0.00000000E+00
  0.00000000E+00  0.00000000E+00  0.00000000E+00  0.00000000E+00  0.00000000E+00
  0.00000000E+00  0.00000000E+00  0.00000000E+00  0.00000000E+00  0.00000000E+00
IOpCl                                      I                6
IROHF                                      I                0
Alpha Orbital Energies                     R   N=          88
 -5.14279324E+02 -5.14279324E+02 -1.47526156E+02 -1.47526156E+02 -1.31915075E+02
 -1.31910200E+02 -6.78375202E+01 -6.78375202E+01 -6.22185685E+01 -6.22185685E+01
 -6.22185685E+01 -6.22185685E+01 -6.22185685E+01 -6.22185685E+01 -1.63852321E+01
 -1.63852321E+01 -1.41391757E+01 -1.41302811E+01 -1.33068744E+01 -1.33068744E+01
 -1.33068744E+01 -1.33068744E+01 -1.33068744E+01 -1.33068744E+01 -1.12377904E+01
 -1.12377904E+01 -1.12377904E+01 -1.12358023E+01 -1.12358023E+01 -1.12358023E+01
 -1.01226728E+01 -1.01226728E+01 -7.77974725E+00 -7.77974725E+00 -7.77974725E+00
 -7.77974725E+00 -7.77974725E+00 -7.77974725E+00 -2.87592529E+00 -2.87592529E+00
 -2.87592529E+00 -2.87592529E+00 -2.87592529E+00 -2.87592529E+00 -2.87592529E+00
 -2.87592529E+00 -2.87592529E+00 -2.87592529E+00 -2.11398943E+00 -2.11398943E+00
 -1.64777865E+00 -1.63175489E+00 -1.22303020E+00 -1.22303020E+00 -1.22303020E+00
 -1.22303020E+00 -1.22303020E+00 -1.22303020E+00 -9.63162271E-01 -9.63162271E-01
 -8.56525993E-01 -8.56525993E-01 -8.56525993E-01 -8.49889282E-01 -8.49889282E-01
 -8.49889282E-01 -4.03702158E-01 -4.03702158E-01 -4.03702158E-01 -4.03702158E-01
 -4.03702158E-01 -4.03702158E-01 -1.49060583E-01 -1.49060583E-01 -7.24277340E-02
  2.00137267E-01  2.07206670E-01  2.07206670E-01  2.07206670E-01  2.07206670E-01
  2.07206670E-01  2.07206670E-01  3.30027050E-01  3.30027050E-01  3.30027050E-01
  3.89368516E-01  3.89368516E-01  3.89368516E-01
Alpha MO coefficients                      R   N=       15488
 -4.81076003E-01  0.00000000E+00  8.69917983E-01  0.00000000E+00 -6.99472550E-03
  0.00000000E+00  1.26483912E-02  0.00000000E+00  2.10596801E-16  0.00000000E+00
  2.78259455E-16  0.00000000E+00 -5.60872357E-16  0.00000000E+00  9.21691209E-16
  0.00000000E+00  2.10709865E-16  0.00000000E+00  2.92330786E-16  0.00000000E+00
  8.24631038E-04  0.00000000E+00 -1.49116016E-03  0.00000000E+00 -1.77004851E-16
  0.00000000E+00 -3.77568983E-17  0.00000000E+00  5.20729224E-16  0.00000000E+00
  2.23926448E-16  0.00000000E+00 -4.24874922E-16  0.00000000E+00  6.87808515E-16
  0.00000000E+00 -1.34410699E-04  0.00000000E+00  2.43051583E-04  0.00000000E+00
 -8.90925007E-17  0.00000000E+00 -6.60995655E-18  0.00000000E+00 -8.78195526E-18
  0.00000000E+00 -1.76439147E-16  0.00000000E+00 -6.19414850E-17  0.00000000E+00
  1.43016807E-16  0.00000000E+00  1.89761144E-16  0.00000000E+00 -8.82759664E-17
  0.00000000E+00  7.03914830E-17  0.00000000E+00  5.14449868E-17  0.00000000E+00
 -2.38904642E-16  0.00000000E+00 -8.06354497E-18  0.00000000E+00  1.68195670E-16
  0.00000000E+00  2.28470393E-16  0.00000000E+00 -2.10650678E-16  0.00000000E+00
 -3.71788204E-18  0.00000000E+00 -1.01978292E-15  0.00000000E+00  2.17294148E-15
  0.00000000E+00  4.73804179E-15  0.00000000E+00 -8.00168277E-15  0.00000000E+00
  1.92539399E-16  0.00000000E+00 -3.20949623E-17  0.00000000E+00 -1.63612464E-14
  0.00000000E+00  2.95434143E-14  0.00000000E+00 -3.47212661E-16  0.00000000E+00
  4.35646752E-18  0.00000000E+00 -1.70079860E-14  0.00000000E+00  3.00895022E-14
  0.00000000E+00 -3.37385757E-17  0.00000000E+00 -3.27778119E-16  0.00000000E+00
  6.89048816E-14  0.00000000E+00 -1.24247038E-13  0.00000000E+00  3.95165391E-16
  0.00000000E+00 -2.83921291E-16  0.00000000E+00  3.56702822E-14  0.00000000E+00
 -6.44738874E-14  0.00000000E+00 -1.31233578E-16  0.00000000E+00  2.64640090E-16
  0.00000000E+00 -1.43831929E-13  0.00000000E+00  2.59671836E-13  0.00000000E+00
 -4.70770001E-16  0.00000000E+00  3.82787153E-16  0.00000000E+00 -4.23913854E-15
  0.00000000E+00  9.81631559E-15  0.00000000E+00  1.73486873E-14  0.00000000E+00
 -3.21481960E-14  0.00000000E+00 -7.82433391E-17  0.00000000E+00 -7.37898570E-17
  0.00000000E+00 -2.12535441E-17  0.00000000E+00 -1.33625530E-16  0.00000000E+00
 -6.00143647E-14  0.00000000E+00  1.08530054E-13  0.00000000E+00 -5.90473621E-14
  0.00000000E+00  1.07023868E-13  0.00000000E+00  7.06365053E-17  0.00000000E+00
  4.50283960E-17  0.00000000E+00  8.05595986E-17  0.00000000E+00  2.55705075E-16
  0.00000000E+00  2.37107379E-13  0.00000000E+00 -4.28930672E-13  0.00000000E+00
  1.62515298E-13  0.00000000E+00 -2.93726342E-13  0.00000000E+00  3.03454185E-17
  0.00000000E+00  1.59387255E-17  0.00000000E+00 -8.64459488E-17  0.00000000E+00
 -7.85756659E-17  0.00000000E+00 -6.36478870E-13  0.00000000E+00  1.15156050E-12
  0.00000000E+00  8.69917983E-01  0.00000000E+00  4.81076003E-01  0.00000000E+00
  1.26483912E-02  0.00000000E+00  6.99472550E-03  0.00000000E+00  3.88874324E-16
  0.00000000E+00 -1.21430481E-16  0.00000000E+00  3.26763614E-16  0.00000000E+00
  2.11777349E-16  0.00000000E+00  1.37642960E-16  0.00000000E+00  4.09160964E-16
  0.00000000E+00 -1.49116016E-03  0.00000000E+00 -8.24631038E-04  0.00000000E+00
  5.59116406E-17  0.00000000E+00  5.30857609E-16  0.00000000E+00 -3.33974511E-16
  0.00000000E+00  1.52213244E-17  0.00000000E+00  3.18819835E-16  0.00000000E+00
  1.78842103E-16  0.00000000E+00  2.43051583E-04  0.00000000E+00  1.34410699E-04
  0.00000000E+00 -2.85510135E-17  0.00000000E+00  2.24269191E-17  0.00000000E+00
  4.77023982E-17  0.00000000E+00  1.45686228E-16  0.00000000E+00  3.67954251E-16
  0.00000000E+00  2.28186116E-16  0.00000000E+00 -2.51981640E-17  0.00000000E+00
 -2.26561518E-16  0.00000000E+00  2.06198963E-16  0.00000000E+00 -1.47447369E-16
  0.00000000E+00 -1.64445487E-16  0.00000000E+00 -1.24050049E-16  0.00000000E+00
 -1.26287089E-16  0.00000000E+00 -2.59517988E-16  0.00000000E+00  1.35447133E-16
  0.00000000E+00  1.59262525E-16  0.00000000E+00  2.70864303E-15  0.00000000E+00
  9.59793016E-16  0.00000000E+00 -8.60034395E-15  0.00000000E+00 -4.37070477E-15
  0.00000000E+00 -1.13639737E-16  0.00000000E+00  1.78729724E-16  0.00000000E+00
  2.99545600E-14  0.00000000E+00  1.60572419E-14  0.00000000E+00 -6.30865222E-17
  0.00000000E+00  3.09407135E-16  0.00000000E+00  3.05993594E-14  0.00000000E+00
  1.61792396E-14  0.00000000E+00  2.24996043E-17  0.00000000E+00 -2.14960107E-17
  0.00000000E+00 -1.24098427E-13  0.00000000E+00 -6.87560666E-14  0.00000000E+00
  3.42273528E-16  0.00000000E+00 -2.68798499E-16  0.00000000E+00 -6.49910235E-14
  0.00000000E+00 -3.49737389E-14  0.00000000E+00 -1.62808085E-17  0.00000000E+00
  5.34248741E-17  0.00000000E+00  2.60058864E-13  0.00000000E+00  1.43951264E-13
  0.00000000E+00 -3.64880070E-16  0.00000000E+00  3.39134690E-16  0.00000000E+00
  9.58309429E-15  0.00000000E+00  6.35128911E-15  0.00000000E+00 -3.14250101E-14
  0.00000000E+00 -1.70848039E-14  0.00000000E+00  4.86061591E-16  0.00000000E+00
  1.66823603E-16  0.00000000E+00 -1.19632922E-16  0.00000000E+00  3.02922912E-16
  0.00000000E+00  1.08359948E-13  0.00000000E+00  5.98970761E-14  0.00000000E+00
  1.06789628E-13  0.00000000E+00  5.95302190E-14  0.00000000E+00 -8.55598371E-17
  0.00000000E+00 -6.62130915E-17  0.00000000E+00  1.29139076E-16  0.00000000E+00
 -5.49600334E-18  0.00000000E+00 -4.28817471E-13  0.00000000E+00 -2.37021014E-13
  0.00000000E+00 -2.93385860E-13  0.00000000E+00 -1.62825201E-13  0.00000000E+00
  6.18557526E-18  0.00000000E+00  1.19264621E-16  0.00000000E+00 -6.66887954E-17
  0.00000000E+00 -7.62103842E-18  0.00000000E+00  1.15152586E-12  0.00000000E+00
  6.36657813E-13  0.00000000E+00 -1.71916067E-14  0.00000000E+00  2.45732154E-14
  0.00000000E+00  5.45312795E-14  0.00000000E+00 -7.82744795E-14  0.00000000E+00
 -5.47182108E-16  0.00000000E+00  2.47722437E-16  0.00000000E+00 -7.90976443E-16
  0.00000000E+00  1.43848133E-15  0.00000000E+00  1.11799860E-13  0.00000000E+00
 -1.54563037E-13  0.00000000E+00 -1.55065673E-13  0.00000000E+00  2.14613731E-13
  0.00000000E+00  1.38196704E-16  0.00000000E+00 -3.27268745E-16  0.00000000E+00
  3.25154078E-16  0.00000000E+00 -7.34890162E-16  0.00000000E+00 -3.51867837E-13
  0.00000000E+00  4.86006893E-13  0.00000000E+00  6.38186450E-13  0.00000000E+00
 -8.83470296E-13  0.00000000E+00  4.57776419E-17  0.00000000E+00  1.17356299E-16
  0.00000000E+00  6.91703583E-18  0.00000000E+00  3.83248888E-16  0.00000000E+00
  1.37225393E-12  0.00000000E+00 -1.90041973E-12  0.00000000E+00  6.08992542E-16
  0.00000000E+00 -6.26382897E-16  0.00000000E+00 -1.28169809E-16  0.00000000E+00
  1.83296880E-16  0.00000000E+00  1.67985895E-16  0.00000000E+00  6.35705882E-17
  0.00000000E+00  7.54201070E-17  0.00000000E+00  1.14179672E-17  0.00000000E+00
 -6.99475099E-17  0.00000000E+00 -1.36206398E-16  0.00000000E+00  9.69774659E-15
  0.00000000E+00  2.87889292E-15  0.00000000E+00  3.48968293E-16  0.00000000E+00
 -2.66184803E-16  0.00000000E+00  4.03776951E-16  0.00000000E+00 -6.59585960E-16
  0.00000000E+00 -2.47834827E-18  0.00000000E+00 -1.93996600E-16  0.00000000E+00
 -1.69176298E-17  0.00000000E+00  2.51224935E-17  0.00000000E+00 -6.73472962E-16
  0.00000000E+00  7.56628181E-16  0.00000000E+00 -1.34648469E-16  0.00000000E+00
  2.09539887E-16  0.00000000E+00  1.13071147E-15  0.00000000E+00 -1.68312795E-15
  0.00000000E+00 -5.67402956E-16  0.00000000E+00  8.59557140E-16  0.00000000E+00
  5.18121706E-16  0.00000000E+00 -1.11545739E-15  0.00000000E+00  5.55554685E-17
  0.00000000E+00 -3.16310647E-18  0.00000000E+00 -1.45601744E-15  0.00000000E+00
  2.12756902E-15  0.00000000E+00  1.54135855E-15  0.00000000E+00 -2.02784383E-15
  0.00000000E+00 -5.80829032E-01  0.00000000E+00  8.04316898E-01  0.00000000E+00
 -1.25882269E-02  0.00000000E+00  1.74318484E-02  0.00000000E+00 -2.13710087E-16
  0.00000000E+00 -7.16154164E-17  0.00000000E+00 -7.75264940E-15  0.00000000E+00
  1.06898064E-14  0.00000000E+00 -2.48943722E-15  0.00000000E+00  2.94145366E-15
  0.00000000E+00  2.02460822E-03  0.00000000E+00 -2.80362468E-03  0.00000000E+00
  2.35502027E-16  0.00000000E+00  4.57882034E-16  0.00000000E+00  1.38432445E-15
  0.00000000E+00 -2.45134639E-15  0.00000000E+00  8.03059201E-16  0.00000000E+00
 -1.08838914E-15  0.00000000E+00 -5.69187720E-04  0.00000000E+00  7.88196313E-04
  0.00000000E+00 -6.36564767E-16  0.00000000E+00 -7.24900864E-16  0.00000000E+00
 -6.90803659E-16  0.00000000E+00  7.38118130E-16  0.00000000E+00 -2.62384026E-17
  0.00000000E+00 -3.60761800E-16  0.00000000E+00  2.31188450E-14  0.00000000E+00
  1.66901950E-14  0.00000000E+00 -7.51485760E-14  0.00000000E+00 -5.50460335E-14
  0.00000000E+00  3.93635999E-16  0.00000000E+00  3.02887204E-16  0.00000000E+00
  1.85294196E-16  0.00000000E+00 -1.11857972E-17  0.00000000E+00 -1.55172937E-13
  0.00000000E+00 -1.12304300E-13  0.00000000E+00  2.14443875E-13  0.00000000E+00
  1.55345854E-13  0.00000000E+00 -3.56888950E-16  0.00000000E+00  5.35375390E-17
  0.00000000E+00 -3.00549616E-16  0.00000000E+00  3.48085836E-16  0.00000000E+00
  4.86777204E-13  0.00000000E+00  3.51266265E-13  0.00000000E+00 -8.83711918E-13
  0.00000000E+00 -6.38350292E-13  0.00000000E+00  1.94418508E-16  0.00000000E+00
 -1.18525801E-16  0.00000000E+00  6.80438357E-16  0.00000000E+00 -3.56635610E-16
  0.00000000E+00 -1.90071032E-12  0.00000000E+00 -1.37253295E-12  0.00000000E+00
 -4.90216545E-16  0.00000000E+00 -2.23789643E-16  0.00000000E+00 -4.93133120E-17
  0.00000000E+00 -4.45548558E-17  0.00000000E+00 -1.07004845E-16  0.00000000E+00
 -1.92213165E-16  0.00000000E+00 -9.26680090E-18  0.00000000E+00  8.89328835E-17
  0.00000000E+00 -1.88522517E-16  0.00000000E+00 -3.60413184E-17  0.00000000E+00
  3.60308288E-16  0.00000000E+00 -8.94755439E-16  0.00000000E+00 -4.77166517E-16
  0.00000000E+00 -8.62165587E-17  0.00000000E+00  1.01959615E-16  0.00000000E+00
 -3.77881795E-16  0.00000000E+00 -1.58219509E-16  0.00000000E+00  1.21043758E-16
  0.00000000E+00 -4.59435479E-16  0.00000000E+00  1.29499461E-16  0.00000000E+00
  2.99752072E-16  0.00000000E+00  2.07254673E-16  0.00000000E+00 -1.59017020E-17
  0.00000000E+00  6.20243392E-18  0.00000000E+00 -1.71270569E-15  0.00000000E+00
 -1.43424091E-15  0.00000000E+00  1.29556684E-15  0.00000000E+00  8.59402724E-16
  0.00000000E+00 -7.20964929E-16  0.00000000E+00 -9.76711543E-16  0.00000000E+00
  8.85134872E-17  0.00000000E+00  8.89385383E-17  0.00000000E+00  2.13205541E-15
  0.00000000E+00  2.08755030E-15  0.00000000E+00 -2.57518452E-15  0.00000000E+00
 -1.94558795E-15  0.00000000E+00  8.04316898E-01  0.00000000E+00  5.80829032E-01
  0.00000000E+00  1.74318484E-02  0.00000000E+00  1.25882269E-02  0.00000000E+00
 -4.85480642E-17  0.00000000E+00  3.68578395E-16  0.00000000E+00  9.76572524E-15
  0.00000000E+00  7.09163336E-15  0.00000000E+00  4.18921950E-15  0.00000000E+00
  2.91027639E-15  0.00000000E+00 -2.80362468E-03  0.00000000E+00 -2.02460822E-03
  0.00000000E+00  4.04434841E-17  0.00000000E+00  2.01860618E-16  0.00000000E+00
 -2.46998025E-15  0.00000000E+00 -2.07022566E-15  0.00000000E+00 -1.32255979E-15
  0.00000000E+00 -6.84260626E-16  0.00000000E+00  7.88196313E-04  0.00000000E+00
  5.69187720E-04  0.00000000E+00  9.72939747E-17  0.00000000E+00 -4.02676846E-16
  0.00000000E+00  7.65863167E-16  0.00000000E+00  8.21629316E-16  0.00000000E+00
 -1.15288871E-16  0.00000000E+00 -1.06346522E-16  0.00000000E+00 -4.31864387E-15
  0.00000000E+00  6.25658236E-15  0.00000000E+00  1.48073247E-14  0.00000000E+00
 -2.06964746E-14  0.00000000E+00  1.77836821E-16  0.00000000E+00  2.53191858E-16
  0.00000000E+00  3.47673644E-14  0.00000000E+00 -4.97567946E-14  0.00000000E+00
 -6.47982690E-16  0.00000000E+00 -2.95994524E-16  0.00000000E+00 -4.51559288E-14
  0.00000000E+00  6.16358493E-14  0.00000000E+00  1.49707043E-17  0.00000000E+00
  7.35667584E-17  0.00000000E+00 -1.08712699E-13  0.00000000E+00  1.50673729E-13
  0.00000000E+00  3.52247349E-16  0.00000000E+00  5.93066008E-16  0.00000000E+00
  1.84650155E-13  0.00000000E+00 -2.55504484E-13  0.00000000E+00  1.22858811E-16
  0.00000000E+00 -7.10159824E-17  0.00000000E+00  4.23642739E-13  0.00000000E+00
 -5.86949168E-13  0.00000000E+00 -2.77724519E-16  0.00000000E+00  1.55797179E-17
  0.00000000E+00 -7.82928395E-17  0.00000000E+00  2.02140471E-16  0.00000000E+00
  1.05663798E-16  0.00000000E+00  8.06539057E-17  0.00000000E+00 -1.19038885E-16
  0.00000000E+00  1.46387149E-16  0.00000000E+00  5.97868383E-17  0.00000000E+00
 -4.50989947E-17  0.00000000E+00 -1.94751205E-17  0.00000000E+00  1.09877032E-16
  0.00000000E+00 -5.80382564E-01  0.00000000E+00  8.04352142E-01  0.00000000E+00
 -1.31627669E-02  0.00000000E+00  1.82422775E-02  0.00000000E+00  1.15924999E-16
  0.00000000E+00 -1.33352410E-16  0.00000000E+00  5.06102746E-13  0.00000000E+00
 -7.01439641E-13  0.00000000E+00 -6.49964894E-14  0.00000000E+00  9.03325340E-14
  0.00000000E+00  2.26267392E-03  0.00000000E+00 -3.13583958E-03  0.00000000E+00
 -2.90610236E-16  0.00000000E+00 -2.04555312E-16  0.00000000E+00 -1.11281371E-13
  0.00000000E+00  1.54672895E-13  0.00000000E+00  1.44076616E-14  0.00000000E+00
 -1.97776174E-14  0.00000000E+00 -8.28297408E-04  0.00000000E+00  1.14793730E-03
  0.00000000E+00  6.33377602E-16  0.00000000E+00  9.17347367E-17  0.00000000E+00
  3.22879828E-14  0.00000000E+00 -4.49564572E-14  0.00000000E+00 -4.07240397E-15
  0.00000000E+00  5.45182732E-15  0.00000000E+00 -1.28630232E-15  0.00000000E+00
  2.80906357E-15  0.00000000E+00  2.83598442E-16  0.00000000E+00  3.07008460E-16
  0.00000000E+00  7.96572093E-17  0.00000000E+00 -4.41359513E-16  0.00000000E+00
 -5.25196868E-16  0.00000000E+00 -4.78713947E-16  0.00000000E+00 -5.32586565E-16
  0.00000000E+00  2.13736155E-16  0.00000000E+00 -5.13467280E-16  0.00000000E+00
  7.94388836E-17  0.00000000E+00 -1.24800704E-16  0.00000000E+00  2.24142438E-16
  0.00000000E+00 -1.38500179E-15  0.00000000E+00  1.68730102E-15  0.00000000E+00
  1.21880169E-15  0.00000000E+00 -1.17856753E-15  0.00000000E+00  8.29341896E-16
  0.00000000E+00 -6.82326733E-16  0.00000000E+00  1.79613174E-16  0.00000000E+00
 -4.38691459E-16  0.00000000E+00  3.02568697E-15  0.00000000E+00 -4.02029824E-15
  0.00000000E+00 -2.53878996E-15  0.00000000E+00  3.42092622E-15  0.00000000E+00
  6.73024535E-15  0.00000000E+00  4.73079289E-15  0.00000000E+00 -2.16231020E-14
  0.00000000E+00 -1.54485803E-14  0.00000000E+00  2.36401145E-17  0.00000000E+00
  9.94679089E-16  0.00000000E+00 -4.82953825E-14  0.00000000E+00 -3.60233899E-14
  0.00000000E+00  7.15068277E-17  0.00000000E+00 -3.52115108E-16  0.00000000E+00
  6.19486444E-14  0.00000000E+00  4.44404031E-14  0.00000000E+00 -1.46691490E-16
  0.00000000E+00  1.55762831E-16  0.00000000E+00  1.50978728E-13  0.00000000E+00
  1.09056634E-13  0.00000000E+00  4.94856386E-16  0.00000000E+00  1.54278342E-16
  0.00000000E+00 -2.56263450E-13  0.00000000E+00 -1.85013614E-13  0.00000000E+00
 -2.14223014E-16  0.00000000E+00 -8.83312160E-17  0.00000000E+00 -5.88662497E-13
  0.00000000E+00 -4.24802721E-13  0.00000000E+00  2.41399433E-16  0.00000000E+00
  1.79949739E-16  0.00000000E+00  1.35467128E-16  0.00000000E+00  1.16158439E-16
  0.00000000E+00  2.11757611E-16  0.00000000E+00  3.32498666E-17  0.00000000E+00
 -2.20397431E-16  0.00000000E+00 -3.55241044E-17  0.00000000E+00  1.26886314E-17
  0.00000000E+00 -4.95107029E-17  0.00000000E+00 -1.00386255E-16  0.00000000E+00
 -1.09891507E-17  0.00000000E+00  8.04344326E-01  0.00000000E+00  5.80376925E-01
  0.00000000E+00  1.82636016E-02  0.00000000E+00  1.31781534E-02  0.00000000E+00
  7.16422557E-17  0.00000000E+00 -2.76931972E-16  0.00000000E+00 -7.47272181E-13
  0.00000000E+00 -5.38732940E-13  0.00000000E+00  9.62925017E-14  0.00000000E+00
  6.94301990E-14  0.00000000E+00 -3.14312688E-03  0.00000000E+00 -2.26793209E-03
  0.00000000E+00 -1.98785435E-16  0.00000000E+00 -2.19016154E-16  0.00000000E+00
  1.84963268E-13  0.00000000E+00  1.33893490E-13  0.00000000E+00 -2.42801937E-14
  0.00000000E+00 -1.66027770E-14  0.00000000E+00  1.15092965E-03  0.00000000E+00
  8.30456543E-04  0.00000000E+00  1.49026864E-16  0.00000000E+00  2.35279356E-16
  0.00000000E+00 -6.44004372E-14  0.00000000E+00 -4.73266149E-14  0.00000000E+00
  8.98264677E-15  0.00000000E+00  5.13897935E-15  0.00000000E+00  5.43687673E-15
  0.00000000E+00 -6.61307115E-15  0.00000000E+00 -7.00948748E-17  0.00000000E+00
 -3.62673719E-16  0.00000000E+00 -7.71000975E-17  0.00000000E+00  9.85112257E-17
  0.00000000E+00 -5.49162037E-16  0.00000000E+00 -3.30435868E-16  0.00000000E+00
  3.68464771E-16  0.00000000E+00  1.71892418E-16  0.00000000E+00  9.42291069E-16
  0.00000000E+00  9.73983169E-16  0.00000000E+00  1.36691062E-16  0.00000000E+00
 -1.00881082E-16  0.00000000E+00  1.52115176E-15  0.00000000E+00  9.54188878E-16
  0.00000000E+00 -1.34664277E-15  0.00000000E+00 -1.05255314E-15  0.00000000E+00
 -1.41702012E-15  0.00000000E+00 -9.46104284E-16  0.00000000E+00 -1.15892754E-17
  0.00000000E+00 -5.27734530E-18  0.00000000E+00 -3.40529327E-15  0.00000000E+00
 -2.70862469E-15  0.00000000E+00  3.46330108E-15  0.00000000E+00  2.47253708E-15
  0.00000000E+00  2.44420008E-01  0.00000000E+00 -3.73612277E-01  0.00000000E+00
 -5.78559773E-01  0.00000000E+00  8.84367184E-01  0.00000000E+00  3.93390575E-16
  0.00000000E+00 -5.94181259E-15  0.00000000E+00 -7.11413520E-14  0.00000000E+00
  1.05185612E-13  0.00000000E+00 -7.63099241E-15  0.00000000E+00  6.40444788E-15