KCaKr                                                                   
SP        UHF                                                         STO-3G              
Number of atoms                            I                4
Info1-9                                    I   N=           9
          11          11           0           0           0         110
           1           1           2
Full Title                                 C   N=           1
KCaKr       
Route                                      C   N=           9
#p uhf/sto-3g symmetry=none SCF=(Conver=8,MaxCycle=3000) Int
egral=(Grid=UltraFine) gfinput pop=full         
Charge                                     I                0
Multiplicity                               I                3
Number of electrons                        I               94
Number of alpha electrons                  I               48
Number of beta electrons                   I               46
Number of basis functions                  I               57
Number of independent functions            I               57
Number of point charges in /Mol/           I                0
Number of translation vectors              I                0
Atomic numbers                             I   N=           4
          36          19          20          19
Nuclear charges                            R   N=           4
  3.60000000E+01  1.90000000E+01  2.00000000E+01  1.90000000E+01
Current cartesian coordinates              R   N=          12
  0.00000000E+00  0.00000000E+00  0.00000000E+00  0.00000000E+00  1.88972612E+01
  0.00000000E+00  0.00000000E+00  0.00000000E+00  1.88972612E+01  1.88972612E+01
  0.00000000E+00  0.00000000E+00
Number of symbols in /Mol/                 I                0
Force Field                                I                0
Atom Types                                 C   N=           4
                                                
Int Atom Types                             I   N=           4
           0           0           0           0
MM charges                                 R   N=           4
  0.00000000E+00  0.00000000E+00  0.00000000E+00  0.00000000E+00
Integer atomic weights                     I   N=           4
          84          39          40          39
Real atomic weights                        R   N=           4
  8.39115064E+01  3.89637079E+01  3.99625907E+01  3.89637079E+01
Atom fragment info                         I   N=           4
           0           0           0           0
Atom residue num                           I   N=           4
           0           0           0           0
Nuclear spins                              I   N=           4
           0           3           0           3
Nuclear ZEff                               R   N=           4
 -2.41200000E+01 -2.24200000E+01 -2.30000000E+01 -2.24200000E+01
Nuclear ZNuc                               R   N=           4
  3.60000000E+01  1.90000000E+01  2.00000000E+01  1.90000000E+01
Nuclear QMom                               R   N=           4
  0.00000000E+00  5.85000000E+00  0.00000000E+00  5.85000000E+00
Nuclear GFac                               R   N=           4
  0.00000000E+00  3.91466000E-01  0.00000000E+00  3.91466000E-01
MicOpt                                     I   N=           4
          -1          -1          -1          -1
Number of residues                         I                0
Number of secondary structures             I                0
Number of contracted shells                I               17
Number of primitive shells                 I               51
Pure/Cartesian d shells                    I                0
Pure/Cartesian f shells                    I                0
Highest angular momentum                   I                2
Largest degree of contraction              I                3
Shell types                                I   N=          17
           0          -1          -1          -1          -2           0
          -1          -1          -1           0          -1          -1
          -1           0          -1          -1          -1
Number of primitives per shell             I   N=          17
           3           3           3           3           3           3
           3           3           3           3           3           3
           3           3           3           3           3
Shell to atom map                          I   N=          17
           1           1           1           1           1           2
           2           2           2           3           3           3
           3           4           4           4           4
Primitive exponents                        R   N=          51
  2.78216005E+03  5.06773927E+02  1.37152802E+02  2.33951412E+02  5.43652768E+01
  1.76812753E+01  2.14568467E+01  6.54502216E+00  2.52527302E+00  1.59004934E+00
  5.86828205E-01  2.59149523E-01  2.14568467E+01  6.54502216E+00  2.52527302E+00
  7.71510368E+02  1.40531577E+02  3.80333290E+01  5.24020398E+01  1.21771071E+01
  3.96037317E+00  3.65158398E+00  1.01878266E+00  3.98744630E-01  5.03982250E-01
  1.86001147E-01  8.21400674E-02  8.54032495E+02  1.55563085E+02  4.21014418E+01
  5.95602994E+01  1.38405327E+01  4.50137080E+00  4.37470626E+00  1.22053194E+00
  4.77707930E-01  4.55848976E-01  1.68236941E-01  7.42952070E-02  7.71510368E+02
  1.40531577E+02  3.80333290E+01  5.24020398E+01  1.21771071E+01  3.96037317E+00
  3.65158398E+00  1.01878266E+00  3.98744630E-01  5.03982250E-01  1.86001147E-01
  8.21400674E-02
Contraction coefficients                   R   N=          51
  1.54328967E-01  5.35328142E-01  4.44634542E-01 -9.99672292E-02  3.99512826E-01
  7.00115469E-01 -2.27763502E-01  2.17543604E-01  9.16676961E-01 -3.08844121E-01
  1.96064117E-02  1.13103444E+00  2.19767951E-01  6.55547363E-01  2.86573259E-01
  1.54328967E-01  5.35328142E-01  4.44634542E-01 -9.99672292E-02  3.99512826E-01
  7.00115469E-01 -2.19620369E-01  2.25595434E-01  9.00398426E-01 -3.08844121E-01
  1.96064117E-02  1.13103444E+00  1.54328967E-01  5.35328142E-01  4.44634542E-01
 -9.99672292E-02  3.99512826E-01  7.00115469E-01 -2.19620369E-01  2.25595434E-01
  9.00398426E-01 -3.08844121E-01  1.96064117E-02  1.13103444E+00  1.54328967E-01
  5.35328142E-01  4.44634542E-01 -9.99672292E-02  3.99512826E-01  7.00115469E-01
 -2.19620369E-01  2.25595434E-01  9.00398426E-01 -3.08844121E-01  1.96064117E-02
  1.13103444E+00
P(S=P) Contraction coefficients            R   N=          51
  0.00000000E+00  0.00000000E+00  0.00000000E+00  1.55916275E-01  6.07683719E-01
  3.91957393E-01  4.95151116E-03  5.77766469E-01  4.84646037E-01 -1.21546860E-01
  5.71522760E-01  5.49894947E-01  0.00000000E+00  0.00000000E+00  0.00000000E+00
  0.00000000E+00  0.00000000E+00  0.00000000E+00  1.55916275E-01  6.07683719E-01
  3.91957393E-01  1.05876043E-02  5.95167005E-01  4.62001012E-01 -1.21546860E-01
  5.71522760E-01  5.49894947E-01  0.00000000E+00  0.00000000E+00  0.00000000E+00
  1.55916275E-01  6.07683719E-01  3.91957393E-01  1.05876043E-02  5.95167005E-01
  4.62001012E-01 -1.21546860E-01  5.71522760E-01  5.49894947E-01  0.00000000E+00
  0.00000000E+00  0.00000000E+00  1.55916275E-01  6.07683719E-01  3.91957393E-01
  1.05876043E-02  5.95167005E-01  4.62001012E-01 -1.21546860E-01  5.71522760E-01
  5.49894947E-01
Coordinates of each shell                  R   N=          51
  0.00000000E+00  0.00000000E+00  0.00000000E+00  0.00000000E+00  0.00000000E+00
  0.00000000E+00  0.00000000E+00  0.00000000E+00  0.00000000E+00  0.00000000E+00
  0.00000000E+00  0.00000000E+00  0.00000000E+00  0.00000000E+00  0.00000000E+00
  0.00000000E+00  1.88972612E+01  0.00000000E+00  0.00000000E+00  1.88972612E+01
  0.00000000E+00  0.00000000E+00  1.88972612E+01  0.00000000E+00  0.00000000E+00
  1.88972612E+01  0.00000000E+00  0.00000000E+00  0.00000000E+00  1.88972612E+01
  0.00000000E+00  0.00000000E+00  1.88972612E+01  0.00000000E+00  0.00000000E+00
  1.88972612E+01  0.00000000E+00  0.00000000E+00  1.88972612E+01  1.88972612E+01
  0.00000000E+00  0.00000000E+00  1.88972612E+01  0.00000000E+00  0.00000000E+00
  1.88972612E+01  0.00000000E+00  0.00000000E+00  1.88972612E+01  0.00000000E+00
  0.00000000E+00
Num ILSW                                   I              100
ILSW                                       I   N=         100
           1           0           0           0           2           0
           0           0           0           0           0          -1
           5           0           0           0           0           0
           0           0           0           0           0           0
           1           1           0           0           0           0
           0           0      100000           0          -1           0
           0           0           0           0           0           0
           0           0           0           1           0           0
           0 -2000000000           1           0           0           0
           0           0           4          52           0           0
           0           0           0           0           0           0
           0           0           0           4           0           1
           0           0           0           0           0           0
           0           0           0           0           0           0
           0           0           0           0           0           0
           0           0           0           0           0           0
           0           0           0           0
Num RLSW                                   I               52
RLSW                                       R   N=          52
  1.00000000E+00  1.00000000E+00  1.00000000E+00  1.00000000E+00  1.00000000E+00
  0.00000000E+00  0.00000000E+00  1.00000000E+00  0.00000000E+00  0.00000000E+00
  0.00000000E+00  0.00000000E+00  1.00000000E+00  0.00000000E+00  0.00000000E+00
  0.00000000E+00  0.00000000E+00  1.00000000E+00  0.00000000E+00  0.00000000E+00
  0.00000000E+00  0.00000000E+00  1.00000000E+00  0.00000000E+00  0.00000000E+00
  0.00000000E+00  0.00000000E+00  1.00000000E+00  0.00000000E+00  0.00000000E+00
  0.00000000E+00  0.00000000E+00  1.00000000E+00  0.00000000E+00  0.00000000E+00
  0.00000000E+00  0.00000000E+00  0.00000000E+00  1.00000000E+00  1.00000000E+00
  0.00000000E+00  1.00000000E+00  0.00000000E+00  0.00000000E+00  0.00000000E+00
  0.00000000E+00  0.00000000E+00  0.00000000E+00  0.00000000E+00  0.00000000E+00
  0.00000000E+00  0.00000000E+00
MxBond                                     I                1
NBond                                      I   N=           4
           0           0           0           0
IBond                                      I   N=           4
           0           0           0           0
RBond                                      R   N=           4
  0.00000000E+00  0.00000000E+00  0.00000000E+00  0.00000000E+00
Virial Ratio                               R      1.999793084999549E+00
SCF Energy                                 R     -4.578850408592811E+03
Total Energy                               R     -4.578850408592811E+03
S**2                                       R      2.002082937731956E+00
S**2 after annihilation                    R      2.000002714945544E+00
RMS Density                                R      1.615775184242261E-09
Job Status                                 I                1
Nuclear derivative order                   I                0
External E-field                           R   N=          35
  0.00000000E+00  0.00000000E+00  0.00000000E+00  0.00000000E+00  0.00000000E+00
  0.00000000E+00  0.00000000E+00  0.00000000E+00  0.00000000E+00  0.00000000E+00
  0.00000000E+00  0.00000000E+00  0.00000000E+00  0.00000000E+00  0.00000000E+00
  0.00000000E+00  0.00000000E+00  0.00000000E+00  0.00000000E+00  0.00000000E+00
  0.00000000E+00  0.00000000E+00  0.00000000E+00  0.00000000E+00  0.00000000E+00
  0.00000000E+00  0.00000000E+00  0.00000000E+00  0.00000000E+00  0.00000000E+00
  0.00000000E+00  0.00000000E+00  0.00000000E+00  0.00000000E+00  0.00000000E+00
IOpCl                                      I                1
IROHF                                      I                0
Alpha Orbital Energies                     R   N=          57
 -5.14279324E+02 -1.47526156E+02 -1.31915075E+02 -1.31915075E+02 -6.78375202E+01
 -6.22185685E+01 -6.22185685E+01 -6.22185685E+01 -1.63852321E+01 -1.41391757E+01
 -1.41391757E+01 -1.33068744E+01 -1.33068744E+01 -1.33068744E+01 -1.12377904E+01
 -1.12377904E+01 -1.12377904E+01 -1.12377904E+01 -1.12377904E+01 -1.12377904E+01
 -1.01226728E+01 -7.77974725E+00 -7.77974725E+00 -7.77974725E+00 -2.87592529E+00
 -2.87592529E+00 -2.87592529E+00 -2.87592529E+00 -2.87592529E+00 -2.11398943E+00
 -1.64777865E+00 -1.64777865E+00 -1.22303020E+00 -1.22303020E+00 -1.22303020E+00
 -9.63162271E-01 -8.56525991E-01 -8.56525991E-01 -8.56525991E-01 -8.56525991E-01
 -8.56525991E-01 -8.56525991E-01 -4.03702158E-01 -4.03702158E-01 -4.03702158E-01
 -1.49060583E-01 -7.24277335E-02 -7.24277335E-02  2.07206670E-01  2.07206670E-01
  2.07206670E-01  3.30027051E-01  3.30027051E-01  3.30027051E-01  3.30027051E-01
  3.30027051E-01  3.30027051E-01
Beta Orbital Energies                      R   N=          57
 -5.14279324E+02 -1.47526156E+02 -1.31910200E+02 -1.31910200E+02 -6.78375202E+01
 -6.22185685E+01 -6.22185685E+01 -6.22185685E+01 -1.63852321E+01 -1.41302811E+01
 -1.41302811E+01 -1.33068744E+01 -1.33068744E+01 -1.33068744E+01 -1.12358023E+01
 -1.12358023E+01 -1.12358023E+01 -1.12358023E+01 -1.12358023E+01 -1.12358023E+01
 -1.01226728E+01 -7.77974725E+00 -7.77974725E+00 -7.77974725E+00 -2.87592529E+00
 -2.87592529E+00 -2.87592529E+00 -2.87592529E+00 -2.87592529E+00 -2.11398943E+00
 -1.63175489E+00 -1.63175489E+00 -1.22303020E+00 -1.22303020E+00 -1.22303020E+00
 -9.63162271E-01 -8.49889280E-01 -8.49889280E-01 -8.49889280E-01 -8.49889280E-01
 -8.49889280E-01 -8.49889280E-01 -4.03702158E-01 -4.03702158E-01 -4.03702158E-01
 -1.49060583E-01  2.00137267E-01  2.00137267E-01  2.07206670E-01  2.07206670E-01
  2.07206670E-01  3.89368516E-01  3.89368517E-01  3.89368517E-01  3.89368517E-01
  3.89368517E-01  3.89368517E-01
Alpha MO coefficients                      R   N=        3249
  9.94078175E-01  1.44536496E-02  2.66706489E-16  2.18967288E-16 -8.62292598E-17
 -1.70398796E-03 -2.00712228E-16  5.67197957E-17  2.95000564E-17  2.77741441E-04
 -2.66403341E-17  4.60401956E-17  3.41395362E-18 -2.41755052E-18  1.69386295E-18
  3.67069268E-18  6.81676782E-18  1.97978397E-18  2.91749564E-15 -1.02908888E-14
  8.29533421E-17  3.35165975E-14  7.00325270E-17  3.49364850E-14 -3.05738518E-16
 -1.42112053E-13  1.64056288E-17 -7.35868377E-14  4.75426845E-16  2.96656722E-13
 -4.73661703E-17  9.86457576E-15 -3.58333997E-14  9.78665441E-17 -2.27493326E-17
  1.24165389E-13  1.22255862E-13 -1.34676802E-16 -1.88939034E-16 -4.89754253E-13
 -3.36138140E-13  2.95701532E-16  3.69957668E-16  1.31529752E-12  2.51508149E-15
 -8.62321607E-15  3.35694429E-14  6.60252537E-17 -6.38742310E-17  3.47552189E-14
 -1.42144843E-13 -2.34121388E-16 -3.82418152E-17 -7.39727052E-14  2.96638046E-13
  3.62546972E-16  8.12775354E-17  2.85453617E-14 -9.18625467E-14 -9.39753268E-16
  4.44313160E-16 -1.90352861E-13  2.64772659E-13  3.01660561E-16 -1.93594274E-16
  6.00013369E-13 -1.09027118E-12 -1.63915204E-16 -1.33123843E-16 -2.34379105E-12
 -6.88809694E-16 -3.17635592E-17  3.68623908E-17 -1.84241356E-17  6.54655890E-17
 -1.09592691E-15 -2.63614453E-16 -1.89469337E-16 -1.92604317E-16 -2.23652750E-16
  1.03962425E-15  4.29582462E-16 -9.55177947E-16  1.25692590E-15 -1.53805071E-15
 -4.61698952E-16  2.20733068E-15 -2.89565064E-15  9.92112915E-01  2.15019254E-02
  1.25167761E-14  1.24331788E-14  8.44693823E-15 -3.45822928E-03 -2.75945588E-15
 -2.57466408E-15 -1.15957827E-15  9.72228414E-04  4.17287588E-16  3.46578651E-17
 -2.77874401E-16 -3.64857712E-16 -1.44645344E-16  8.41629646E-17  1.30747532E-16
 -4.21495462E-16  4.16161142E-16 -1.69612574E-15 -2.52029119E-16  1.55661559E-15
 -1.35879595E-15  3.28948264E-15  2.45024344E-16 -3.08095370E-15  1.16964734E-14
 -3.77587754E-14 -4.16983812E-14 -4.19721072E-14  1.24287971E-16  1.08400458E-13
  1.31359698E-13  1.30730804E-13  3.94840404E-17 -4.45561721E-13 -5.12422054E-13
 -5.10749988E-13 -1.28660581E-16 -4.30774888E-17 -2.55593881E-17  7.87492853E-17
 -2.71274975E-16  3.33688489E-17  7.00502241E-01  1.58870171E-02 -5.88826925E-13
 -5.76272346E-13  6.43941819E-14 -2.73097135E-03  1.29901265E-13  1.25829404E-13
 -1.45873554E-14  9.99727123E-04 -3.81775299E-14 -3.55100061E-14  4.42581361E-15
  9.58073454E-16  3.44882124E-17 -1.59687831E-16  5.80821821E-16  1.03414352E-15
  1.23610574E-15  9.46449455E-16  1.09382752E-15 -1.95080555E-15 -2.02018205E-15
 -2.85508898E-15 -3.14312480E-15  6.16686510E-15  7.02227099E-01  1.59261360E-02
 -5.77817072E-13 -5.90447893E-13  6.43335788E-14 -2.73769586E-03  1.26566759E-13
  1.30434816E-13 -1.32465086E-14  1.00218877E-03 -3.59314944E-14 -3.85015315E-14
  3.01226953E-15 -5.47972737E-17  1.95871213E-16  4.11788765E-14 -4.13945673E-14
 -2.24933427E-16  9.18879632E-17 -1.31300049E-13  1.31448657E-13  3.75513411E-17
 -5.57721349E-16  5.12083681E-13 -5.13314403E-13 -1.17888709E-16 -1.41270365E-16
  7.78795641E-17  1.10258905E-16  2.04713228E-16 -1.90551757E-17  7.02227099E-01
  1.59261360E-02 -5.90320960E-13 -5.77970798E-13  6.50126276E-14 -2.73769586E-03
  1.29552153E-13  1.27728757E-13 -1.49157084E-14  1.00218877E-03 -3.65397885E-14
 -3.75337739E-14  5.23146041E-15  5.70280784E-16 -2.23909850E-16  5.15932844E-16
 -1.43378885E-15 -3.08165383E-16  8.77599023E-17 -9.50329488E-16  9.52763904E-16
 -7.28148116E-17 -9.44268291E-17  2.75097214E-15 -2.75837747E-15  2.24337380E-18
 -7.00502241E-01 -1.58870171E-02  5.76625927E-13  5.88644189E-13 -6.43191210E-14
  2.73097135E-03 -1.27463436E-13 -1.29252661E-13  1.40262948E-14 -9.99727123E-04
  3.73962008E-14  3.66062433E-14 -4.11114102E-15 -4.46460831E-01  1.05680496E+00
  5.84920729E-14  8.70296125E-14 -3.04574271E-15  8.26140670E-02  4.26081578E-15
  5.18404151E-15  5.82577994E-16 -1.13144944E-02 -5.86713415E-16 -9.30645981E-16
 -4.08553321E-16 -1.53638770E-16  2.34587810E-17  2.19272653E-17 -6.43743499E-17
 -2.55449508E-16 -1.11261456E-13  3.67538136E-13  1.65908076E-16 -1.30449343E-12
 -1.54975459E-16 -1.38482384E-12 -3.58641895E-16  5.60692993E-12  4.68132876E-17
  2.93125372E-12  5.63090716E-16 -1.17768388E-11 -1.91506242E-16 -4.19369934E-13
  1.37444913E-12 -2.91281837E-16  4.41781938E-16 -4.76826088E-12 -4.82557942E-12
 -9.91882992E-17  2.42875807E-17  1.91991376E-11  1.32705871E-11  1.78659147E-16
 -1.34588313E-17 -5.18125138E-11 -1.10952247E-13  3.67792293E-13 -1.30421885E-12
  7.17147198E-22  1.05405359E-16 -1.38503459E-12  5.60715679E-12  3.61492584E-16
 -1.58627709E-17  2.93116697E-12 -1.17770351E-11 -5.57029302E-16  1.40384692E-16
  3.41993687E-14 -8.15530005E-14  7.99857103E-01  3.25097869E-01  4.90198774E-01
 -4.64961406E-15  1.46998647E-02  5.97468554E-03  9.00892872E-03  8.63670964E-16
 -9.62051106E-04 -3.91020800E-04 -5.89600655E-04 -2.60739889E-15  2.33168971E-15
  1.78893462E-15  1.04714841E-15  3.53755663E-15 -8.75130424E-15  2.94970899E-14
  5.30735907E-15 -1.01463619E-13  3.55422965E-15 -1.09668484E-13 -2.49381549E-14
  4.37020518E-13 -1.52084513E-14  2.32566402E-13  5.16734705E-14 -9.17608585E-13
  3.14367176E-14 -4.63203186E-14  1.53045904E-13  2.18565782E-14  7.79742133E-15
 -5.19243806E-13 -5.38711852E-13 -8.49540216E-14 -3.44079468E-14  2.09898422E-12
  1.48151956E-12  2.29165241E-13  9.26057482E-14 -5.66697230E-12 -2.17719312E-14
  7.18954237E-14 -2.49712687E-13  3.00929344E-15  3.58414979E-15 -2.70695105E-13
  1.07555732E-12 -1.04544049E-14 -1.46921273E-14  5.72488854E-13 -2.25886474E-12
  2.04666582E-14  3.11675988E-14  1.02839243E-14 -2.43928612E-14 -5.62719983E-01
  6.63835274E-01  4.77937022E-01 -2.06936644E-15 -1.03417317E-02  1.22000400E-02
  8.78358086E-03  4.63267688E-16  6.76827623E-04 -7.98446944E-04 -5.74852482E-04
  5.80508008E-16  1.16373192E-15  2.13623091E-15 -3.99626432E-15  8.21568842E-16
 -1.77507729E-14  5.89364322E-14 -3.73021922E-15 -2.06475982E-13  2.80620477E-15
 -2.24831973E-13  1.75717698E-14  8.91507576E-13 -1.40156687E-14  4.76160242E-13
 -3.73895882E-14 -1.87364234E-12  3.00945788E-14 -4.56334955E-14  1.49099837E-13
 -1.43854319E-14  1.61045555E-14 -5.07731637E-13 -5.25280729E-13  5.97401433E-14
 -7.02099644E-14  2.04673733E-12  1.44453819E-12 -1.61294216E-13  1.90102483E-13
 -5.52546024E-12  1.53122908E-14 -5.01722404E-14  1.74745638E-13  4.82417693E-15
  3.36213055E-15  1.90411183E-13 -7.54995855E-13 -2.18475962E-14 -1.45499679E-14
 -4.04499444E-13  1.58776898E-12  4.32880350E-14  3.10083324E-14 -3.16897689E-14
  7.53372273E-14 -1.71259111E-01 -6.62864203E-01  7.19052302E-01  4.42685495E-15
 -3.14741939E-03 -1.21821936E-02  1.32148248E-02 -6.70391861E-16  2.05986815E-04
  7.97278961E-04 -8.64860810E-04  2.25959186E-15  2.43146579E-15  2.17748361E-15
  1.33310697E-15 -2.71359326E-15  1.79536350E-14 -5.94602502E-14 -1.69631388E-15
  2.06828102E-13  5.74588751E-15  2.24114560E-13  5.72714992E-15 -8.90742178E-13
 -2.25639673E-14 -4.74188761E-13 -1.15359477E-14  1.87200501E-12  4.68760289E-14
 -6.75756666E-14  2.22903524E-13 -4.68791148E-15 -1.72383458E-14 -7.62891711E-13
 -7.90440607E-13  1.80229375E-14  7.04563298E-14  3.07890939E-12  2.17291946E-12
 -4.90406629E-14 -1.89928034E-13 -8.31234648E-12  4.31293426E-15 -1.53701643E-14
  5.35005938E-14 -4.49932516E-15  4.91239878E-15  5.76772925E-14 -2.30298002E-13
  1.97497236E-14 -2.22484696E-14 -1.22178619E-13  4.83673313E-13 -4.23269533E-14
  4.64947547E-14 -4.37468209E-13  1.31551516E-12 -3.17607555E-16 -3.95580656E-16
  2.19223522E-12 -2.94589636E-12  3.56106024E-16 -3.25820006E-16 -6.95686860E-12
  1.50962279E-11  6.82558296E-16 -6.61057010E-16  3.17898447E-11  1.44467664E-15
  1.97558121E-17 -1.86732589E-17  2.76471466E-16 -4.70246203E-17 -8.06403887E-16
  2.51547167E-15  5.65388294E-18 -4.05880993E-15  3.64165500E-15 -8.19574969E-15
 -2.23976400E-16  1.90448903E-14 -1.95159388E-14  1.66688090E-14 -3.47444467E-16
 -4.10390630E-14  4.10406600E-14 -3.99189103E-01  1.04938015E+00  2.04510803E-12
  2.04243784E-12  1.31972868E-12  6.49752041E-02  2.40021531E-13  2.39962681E-13
  1.48948318E-13 -1.49288207E-02 -5.15987191E-14 -5.15178037E-14 -2.70622766E-14
 -7.37008507E-16  2.33159109E-15 -3.47955649E-15  2.46967913E-16  3.68743636E-15
 -7.95376203E-15  1.91696070E-14 -4.03925392E-16 -1.95836600E-14  1.66842650E-14
 -4.11651717E-14  4.23929799E-16  4.11169386E-14 -1.06885363E-16  5.89361195E-16
 -3.80197850E-13  3.81253702E-13 -9.02879645E-17 -1.29847746E-15  1.23065092E-12
 -1.23409849E-12  3.24603537E-16  6.70834562E-15 -6.00544021E-12  6.02059280E-12
  1.80669393E-16  9.82951017E-17  2.92130100E-18 -3.38487923E-16  1.04510222E-15
 -4.13728762E-17 -2.78085813E-01  7.41773448E-01 -7.60609010E-11 -7.45427388E-11
  8.31867389E-12  4.65147387E-02 -1.09696830E-11 -1.07212419E-11  1.19818774E-12
 -1.40128312E-02  2.78626157E-12  2.74082555E-12 -3.05271643E-13  2.71856960E-17
 -9.56243257E-17 -1.37350723E-15 -1.03657309E-15 -4.27917355E-17  1.00271107E-16
  1.32369485E-14 -1.28282544E-14 -3.70801245E-16 -5.74008627E-17 -3.59426143E-14
  3.55350678E-14  7.10647276E-16  2.77391690E-01 -7.39921926E-01  7.43570404E-11
  7.58719663E-11 -8.29793409E-12 -4.63986345E-02  1.06932823E-11  1.09426981E-11
 -1.19545525E-12  1.39778541E-02 -2.73207645E-12 -2.78003197E-12  3.04785484E-13
 -1.28211455E-13  3.89547132E-13  3.81212535E-13  3.80306978E-13  4.65928729E-17
 -8.99875075E-13 -1.23441472E-12 -1.23119979E-12 -9.63215598E-17  5.35712617E-12
  6.02024094E-12  6.00517127E-12  3.25060105E-17  7.11249231E-16  6.13521095E-17
 -9.85661103E-18  7.37474559E-16  5.71748536E-17 -2.77391690E-01  7.39921926E-01
 -7.58697962E-11 -7.43555245E-11  8.29858163E-12  4.63986345E-02 -1.09514868E-11
 -1.06862495E-11  1.19540113E-12 -1.39778541E-02  2.79837152E-12  2.71565211E-12
 -3.04647966E-13 -1.11089349E-15  3.55520474E-15 -9.38046295E-16 -4.01219211E-16
  4.97511602E-15 -1.03893668E-14 -1.32392623E-14 -1.30162896E-14  2.74000401E-14
  2.77551012E-14  3.58691113E-14  3.55971566E-14 -7.06677225E-14 -2.78085813E-01
  7.41773448E-01 -7.45423060E-11 -7.60599378E-11  8.31910217E-12  4.65147387E-02
 -1.07129210E-11 -1.09783574E-11  1.19839445E-12 -1.40128312E-02  2.72251192E-12
  2.80493292E-12 -3.05550591E-13  6.05768897E-13 -1.85821540E-12  4.51794295E-14
 -2.05321560E-14 -3.66576976E-12  4.39265221E-12 -1.47683019E-13  6.45889134E-14
  1.19921853E-11 -2.94288971E-11  7.00315403E-13 -3.01737120E-13 -6.05473846E-11
 -3.60159323E-16  4.53224109E-17 -6.64905103E-17  3.31944985E-16  6.53503909E-17
  4.26902027E-15 -1.22989543E-14 -3.53335100E-15  1.60332391E-15 -2.08654900E-15
  1.29587378E-14  1.33895810E-15 -3.17396862E-14  2.93112245E-14 -2.32329569E-14
 -1.53323447E-15  6.69593013E-14 -6.27040798E-14  6.92310117E-13 -1.85183489E-12
  4.14436492E-01 -1.78750472E-01  8.77415553E-01 -3.71180080E-15  1.75757992E-02
 -7.58061237E-03  3.72102357E-02  6.80663702E-15 -3.58296030E-03  1.54536547E-03
 -7.58558948E-03  2.48578938E-15 -7.00872906E-15  1.44057147E-15 -9.58272799E-16
 -2.52605494E-15  3.94661154E-15 -1.13984487E-14 -1.58728345E-15  1.24449222E-14
 -1.34808454E-14  2.48017756E-14  1.88690531E-15 -2.58504441E-14  1.90834777E-13
 -5.85343336E-13 -1.96033219E-14  9.30046901E-14 -1.14967417E-12  1.38340692E-12
  6.19289934E-14 -3.03740944E-13  3.76613113E-12 -9.26299762E-12 -3.14227830E-13
  1.57617875E-12 -1.90576760E-11 -2.52525886E-16  1.76935224E-16 -1.97902084E-16
 -1.77329242E-16 -4.87551974E-16 -6.56435823E-16  5.23965664E-15  8.97890364E-16
 -1.68076146E-15  4.57359580E-15 -7.63510603E-15 -9.15511940E-16  1.77872531E-14
 -1.82762425E-14  1.66594842E-14 -2.84611305E-16 -3.78204312E-14  4.00995054E-14
  7.97421316E-13 -2.13273025E-12 -1.83899910E-01  9.29235278E-01  2.76170256E-01
 -3.61535272E-16 -7.79899439E-03  3.94078537E-02  1.17120791E-02  5.28009102E-15
  1.58988431E-03 -8.03359061E-03 -2.38759637E-03  1.20291513E-15 -5.38608063E-15
  5.92955464E-16 -1.71419482E-15  7.63840862E-16  5.12364031E-15 -1.26172522E-14
  2.87596128E-16  1.24817834E-14 -1.09108002E-14  2.76537516E-14  2.05690571E-15
 -2.70866006E-14 -2.46443016E-13  7.55960103E-13  8.94504016E-14  3.00911783E-14
  1.48808808E-12 -1.78693907E-12 -2.92181994E-13 -9.84428588E-14 -4.87194810E-12
  1.19732816E-11  1.48335698E-12  4.72544474E-13  2.46341825E-11 -5.69624267E-16
 -1.71565824E-16 -2.15529471E-16  1.05483600E-16 -2.70437978E-16 -2.99645518E-15
  8.41766313E-15 -2.81304763E-15 -5.56097548E-16  5.74396484E-15 -6.83755830E-15
 -4.39133237E-17  1.80652670E-14 -1.76617132E-14  1.51333396E-14  1.98466017E-15
 -3.79703986E-14  3.82824124E-14  8.00672879E-13 -2.14096045E-12  8.76350733E-01
  2.79530778E-01 -3.56986452E-01  2.34169822E-15  3.71650778E-02  1.18545951E-02
 -1.51394057E-02  3.79010594E-15 -7.57638370E-03 -2.41664935E-03  3.08628296E-03
 -4.05039574E-15  1.16462511E-14 -3.35355781E-15  7.83121357E-17  4.53268892E-16
 -1.38247452E-14  3.36867495E-14 -1.66255128E-15 -3.49591067E-14  2.99660814E-14
 -7.28005669E-14  5.45705500E-16  7.41557525E-14 -5.60570952E-17  1.76825564E-16
  6.62486854E-13 -6.64511550E-13  4.74686443E-16 -4.43032123E-18 -2.33238334E-12
  2.33857729E-12 -1.34872933E-15 -1.23379057E-14  1.44081858E-11 -1.44341117E-11
  1.49645364E-17  2.94173606E-17  1.34675152E-15  6.10254756E-16 -4.94122119E-15
 -6.37536560E-16 -2.37209930E-11  6.46896050E-11 -1.45325665E-01  6.82022184E-01
 -1.89886982E-02 -1.67778160E-12 -6.98112252E-03  3.27628326E-02 -9.12174934E-04
  3.00344957E-13  1.89586870E-03 -8.89742713E-03  2.47720034E-04 -6.19214295E-17
  3.12043240E-16  7.24938132E-15 -8.23420628E-15  1.44085240E-15 -4.67820598E-17
 -1.88546457E-14  1.89391329E-14  1.22896249E-16 -1.60795076E-16  5.40837685E-14
 -5.43135655E-14  2.78380478E-16  2.36604986E-11 -6.45246152E-11 -6.80788466E-01
  1.45452944E-01  1.89219041E-02  1.67347757E-12 -3.27035675E-02  6.98723672E-03
  9.08966291E-04 -2.99049245E-13  8.88133247E-03 -1.89752914E-03 -2.46848661E-04
 -3.53792896E-15  8.89387128E-15 -3.41833952E-14 -1.03960415E-14  2.54786314E-14
 -8.89059536E-15  1.19491645E-13  3.64160978E-14 -9.00573519E-14 -3.42799723E-13
 -7.27787608E-13 -2.16968133E-13  5.59451912E-13  1.02315078E-16 -8.47733419E-16
 -3.03815115E-16 -3.04633967E-16  8.09790937E-17  1.73013156E-11 -4.71848812E-11
 -2.92635135E-01  7.58489744E-03  8.93325909E-01  1.25172067E-12 -1.40575426E-02
  3.64361645E-04  4.29133947E-02 -2.22438891E-13  3.81761745E-03 -9.89499665E-05
 -1.16540229E-02 -1.71949872E-15  5.29098327E-15 -8.98691007E-17  7.22447092E-15
 -1.32212161E-14 -1.25206409E-14 -7.07128496E-15 -2.62162423E-14  3.13426037E-14
  3.47976484E-14  1.92138610E-14  7.17502984E-14 -8.77063868E-14  5.41719879E-12
 -1.47741044E-11  2.76141017E-02 -1.17312649E-01  2.70874663E-01  3.94485500E-13
  1.32652018E-03 -5.63543938E-03  1.30122178E-02 -7.20881646E-14 -3.60244085E-04
  1.53042052E-03 -3.53373780E-03 -9.12267468E-14  2.29708391E-13 -3.31756895E-13
 -5.51396333E-13 -3.45203626E-15 -2.32336932E-13  1.16889115E-12  1.94070151E-12
  1.23429311E-14 -8.79449737E-12 -7.21917942E-12 -1.19754297E-11 -7.34806613E-14
 -2.36707692E-15  6.48898530E-16  4.36531606E-16 -9.20194872E-16 -6.15628282E-16
 -4.46129455E-11  1.21667659E-10  4.65014862E-01  5.53515444E-01  1.82614206E-01
 -3.19464984E-12  2.23382823E-02  2.65896539E-02  8.77238128E-03  5.56756037E-13
 -6.06642416E-03 -7.22097234E-03 -2.38232220E-03  1.48007121E-15 -4.52261369E-15
 -8.08078938E-15 -5.25051922E-15  1.34022324E-14  1.13516389E-14  1.87994489E-14
  1.07752020E-14 -3.10094067E-14 -3.23373605E-14 -5.30956332E-14 -2.95464264E-14
  8.51137316E-14  2.06237441E-12 -5.62647332E-12  3.49997698E-01 -4.25199238E-01
 -3.35205929E-01  1.73130381E-13  1.68131129E-02 -2.04256280E-02 -1.61025491E-02
 -3.31849422E-14 -4.56594974E-03  5.54700320E-03  4.37298141E-03 -9.58398908E-14